# vtk DataFile Version 3.0
AMR mesh
ASCII
DATASET UNSTRUCTURED_GRID
POINTS 2662 double
1 0 1
0.9 0 0.9
0.8 0 0.8
0.7 0 0.7
0.6 0 0.6
0.5 0 0.5
0.4 0 0.4
0.3 0 0.3
0.2 0 0.2
0.1 0 0.1
0 0 0
0.9 0 1
0.81 0 0.91
0.72 0 0.82
0.63 0 0.73
0.54 0 0.64
0.45 0 0.55
0.36 0 0.46
0.27 0 0.37
0.18 0 0.28
0.09 0 0.19
0 0 0.1
0.8 0 1
0.72 0 0.92
0.64 0 0.84
0.56 0 0.76
0.48 0 0.68
0.4 0 0.6
0.32 0 0.52
0.24 0 0.44
0.16 0 0.36
0.08 0 0.28
0 0 0.2
0.7 0 1
0.63 0 0.93
0.56 0 0.86
0.49 0 0.79
0.42 0 0.72
0.35 0 0.65
0.28 0 0.58
0.21 0 0.51
0.14 0 0.44
0.07 0 0.37
0 0 0.3
0.6 0 1
0.54 0 0.94
0.48 0 0.88
0.42 0 0.82
0.36 0 0.76
0.3 0 0.7
0.24 0 0.64
0.18 0 0.58
0.12 0 0.52
0.06 0 0.46
0 0 0.4
0.5 0 1
0.45 0 0.95
0.4 0 0.9
0.35 0 0.85
0.3 0 0.8
0.25 0 0.75
0.2 0 0.7
0.15 0 0.65
0.1 0 0.6
0.05 0 0.55
0 0 0.5
0.4 0 1
0.36 0 0.96
0.32 0 0.92
0.28 0 0.88
0.24 0 0.84
0.2 0 0.8
0.16 0 0.76
0.12 0 0.72
0.08 0 0.68
0.04 0 0.64
0 0 0.6
0.3 0 1
0.27 0 0.97
0.24 0 0.94
0.21 0 0.91
0.18 0 0.88
0.15 0 0.85
0.12 0 0.82
0.09 0 0.79
0.06 0 0.76
0.03 0 0.73
0 0 0.7
0.2 0 1
0.18 0 0.98
0.16 0 0.96
0.14 0 0.94
0.12 0 0.92
0.1 0 0.9
0.08 0 0.88
0.06 0 0.86
0.04 0 0.84
0.02 0 0.82
0 0 0.8
0.1 0 1
0.09 0 0.99
0.08 0 0.98
0.07 0 0.97
0.06 0 0.96
0.05 0 0.95
0.04 0 0.94
0.03 0 0.93
0.02 0 0.92
0.01 0 0.91
0 0 0.9
0 0 1
0 0 1
0 0 1
0 0 1
0 0 1
0 0 1
0 0 1
0 0 1
0 0 1
0 0 1
0 0 1
1 0.1 1
0.9 0.1 0.9
0.8 0.1 0.8
0.7 0.1 0.7
0.6 0.1 0.6
0.5 0.1 0.5
0.4 0.1 0.4
0.3 0.1 0.3
0.2 0.1 0.2
0.1 0.1 0.1
0 0.1 0
0.9 0.1 1
0.81 0.1 0.91
0.72 0.1 0.82
0.63 0.1 0.73
0.54 0.1 0.64
0.45 0.1 0.55
0.36 0.1 0.46
0.27 0.1 0.37
0.18 0.1 0.28
0.09 0.1 0.19
0 0.1 0.1
0.8 0.1 1
0.72 0.1 0.92
0.64 0.1 0.84
0.56 0.1 0.76
0.48 0.1 0.68
0.4 0.1 0.6
0.32 0.1 0.52
0.24 0.1 0.44
0.16 0.1 0.36
0.08 0.1 0.28
0 0.1 0.2
0.7 0.1 1
0.63 0.1 0.93
0.56 0.1 0.86
0.49 0.1 0.79
0.42 0.1 0.72
0.35 0.1 0.65
0.28 0.1 0.58
0.21 0.1 0.51
0.14 0.1 0.44
0.07 0.1 0.37
0 0.1 0.3
0.6 0.1 1
0.54 0.1 0.94
0.48 0.1 0.88
0.42 0.1 0.82
0.36 0.1 0.76
0.3 0.1 0.7
0.24 0.1 0.64
0.18 0.1 0.58
0.12 0.1 0.52
0.06 0.1 0.46
0 0.1 0.4
0.5 0.1 1
0.45 0.1 0.95
0.4 0.1 0.9
0.35 0.1 0.85
0.3 0.1 0.8
0.25 0.1 0.75
0.2 0.1 0.7
0.15 0.1 0.65
0.1 0.1 0.6
0.05 0.1 0.55
0 0.1 0.5
0.4 0.1 1
0.36 0.1 0.96
0.32 0.1 0.92
0.28 0.1 0.88
0.24 0.1 0.84
0.2 0.1 0.8
0.16 0.1 0.76
0.12 0.1 0.72
0.08 0.1 0.68
0.04 0.1 0.64
0 0.1 0.6
0.3 0.1 1
0.27 0.1 0.97
0.24 0.1 0.94
0.21 0.1 0.91
0.18 0.1 0.88
0.15 0.1 0.85
0.12 0.1 0.82
0.09 0.1 0.79
0.06 0.1 0.76
0.03 0.1 0.73
0 0.1 0.7
0.2 0.1 1
0.18 0.1 0.98
0.16 0.1 0.96
0.14 0.1 0.94
0.12 0.1 0.92
0.1 0.1 0.9
0.08 0.1 0.88
0.06 0.1 0.86
0.04 0.1 0.84
0.02 0.1 0.82
0 0.1 0.8
0.1 0.1 1
0.09 0.1 0.99
0.08 0.1 0.98
0.07 0.1 0.97
0.06 0.1 0.96
0.05 0.1 0.95
0.04 0.1 0.94
0.03 0.1 0.93
0.02 0.1 0.92
0.01 0.1 0.91
0 0.1 0.9
0 0.1 1
0 0.1 1
0 0.1 1
0 0.1 1
0 0.1 1
0 0.1 1
0 0.1 1
0 0.1 1
0 0.1 1
0 0.1 1
0 0.1 1
1 0.2 1
0.9 0.2 0.9
0.8 0.2 0.8
0.7 0.2 0.7
0.6 0.2 0.6
0.5 0.2 0.5
0.4 0.2 0.4
0.3 0.2 0.3
0.2 0.2 0.2
0.1 0.2 0.1
0 0.2 0
0.9 0.2 1
0.81 0.2 0.91
0.72 0.2 0.82
0.63 0.2 0.73
0.54 0.2 0.64
0.45 0.2 0.55
0.36 0.2 0.46
0.27 0.2 0.37
0.18 0.2 0.28
0.09 0.2 0.19
0 0.2 0.1
0.8 0.2 1
0.72 0.2 0.92
0.64 0.2 0.84
0.56 0.2 0.76
0.48 0.2 0.68
0.4 0.2 0.6
0.32 0.2 0.52
0.24 0.2 0.44
0.16 0.2 0.36
0.08 0.2 0.28
0 0.2 0.2
0.7 0.2 1
0.63 0.2 0.93
0.56 0.2 0.86
0.49 0.2 0.79
0.42 0.2 0.72
0.35 0.2 0.65
0.28 0.2 0.58
0.21 0.2 0.51
0.14 0.2 0.44
0.07 0.2 0.37
0 0.2 0.3
0.6 0.2 1
0.54 0.2 0.94
0.48 0.2 0.88
0.42 0.2 0.82
0.36 0.2 0.76
0.3 0.2 0.7
0.24 0.2 0.64
0.18 0.2 0.58
0.12 0.2 0.52
0.06 0.2 0.46
0 0.2 0.4
0.5 0.2 1
0.45 0.2 0.95
0.4 0.2 0.9
0.35 0.2 0.85
0.3 0.2 0.8
0.25 0.2 0.75
0.2 0.2 0.7
0.15 0.2 0.65
0.1 0.2 0.6
0.05 0.2 0.55
0 0.2 0.5
0.4 0.2 1
0.36 0.2 0.96
0.32 0.2 0.92
0.28 0.2 0.88
0.24 0.2 0.84
0.2 0.2 0.8
0.16 0.2 0.76
0.12 0.2 0.72
0.08 0.2 0.68
0.04 0.2 0.64
0 0.2 0.6
0.3 0.2 1
0.27 0.2 0.97
0.24 0.2 0.94
0.21 0.2 0.91
0.18 0.2 0.88
0.15 0.2 0.85
0.12 0.2 0.82
0.09 0.2 0.79
0.06 0.2 0.76
0.03 0.2 0.73
0 0.2 0.7
0.2 0.2 1
0.18 0.2 0.98
0.16 0.2 0.96
0.14 0.2 0.94
0.12 0.2 0.92
0.1 0.2 0.9
0.08 0.2 0.88
0.06 0.2 0.86
0.04 0.2 0.84
0.02 0.2 0.82
0 0.2 0.8
0.1 0.2 1
0.09 0.2 0.99
0.08 0.2 0.98
0.07 0.2 0.97
0.06 0.2 0.96
0.05 0.2 0.95
0.04 0.2 0.94
0.03 0.2 0.93
0.02 0.2 0.92
0.01 0.2 0.91
0 0.2 0.9
0 0.2 1
0 0.2 1
0 0.2 1
0 0.2 1
0 0.2 1
0 0.2 1
0 0.2 1
0 0.2 1
0 0.2 1
0 0.2 1
0 0.2 1
1 0.3 1
0.9 0.3 0.9
0.8 0.3 0.8
0.7 0.3 0.7
0.6 0.3 0.6
0.5 0.3 0.5
0.4 0.3 0.4
0.3 0.3 0.3
0.2 0.3 0.2
0.1 0.3 0.1
0 0.3 0
0.9 0.3 1
0.81 0.3 0.91
0.72 0.3 0.82
0.63 0.3 0.73
0.54 0.3 0.64
0.45 0.3 0.55
0.36 0.3 0.46
0.27 0.3 0.37
0.18 0.3 0.28
0.09 0.3 0.19
0 0.3 0.1
0.8 0.3 1
0.72 0.3 0.92
0.64 0.3 0.84
0.56 0.3 0.76
0.48 0.3 0.68
0.4 0.3 0.6
0.32 0.3 0.52
0.24 0.3 0.44
0.16 0.3 0.36
0.08 0.3 0.28
0 0.3 0.2
0.7 0.3 1
0.63 0.3 0.93
0.56 0.3 0.86
0.49 0.3 0.79
0.42 0.3 0.72
0.35 0.3 0.65
0.28 0.3 0.58
0.21 0.3 0.51
0.14 0.3 0.44
0.07 0.3 0.37
0 0.3 0.3
0.6 0.3 1
0.54 0.3 0.94
0.48 0.3 0.88
0.42 0.3 0.82
0.36 0.3 0.76
0.3 0.3 0.7
0.24 0.3 0.64
0.18 0.3 0.58
0.12 0.3 0.52
0.06 0.3 0.46
0 0.3 0.4
0.5 0.3 1
0.45 0.3 0.95
0.4 0.3 0.9
0.35 0.3 0.85
0.3 0.3 0.8
0.25 0.3 0.75
0.2 0.3 0.7
0.15 0.3 0.65
0.1 0.3 0.6
0.05 0.3 0.55
0 0.3 0.5
0.4 0.3 1
0.36 0.3 0.96
0.32 0.3 0.92
0.28 0.3 0.88
0.24 0.3 0.84
0.2 0.3 0.8
0.16 0.3 0.76
0.12 0.3 0.72
0.08 0.3 0.68
0.04 0.3 0.64
0 0.3 0.6
0.3 0.3 1
0.27 0.3 0.97
0.24 0.3 0.94
0.21 0.3 0.91
0.18 0.3 0.88
0.15 0.3 0.85
0.12 0.3 0.82
0.09 0.3 0.79
0.06 0.3 0.76
0.03 0.3 0.73
0 0.3 0.7
0.2 0.3 1
0.18 0.3 0.98
0.16 0.3 0.96
0.14 0.3 0.94
0.12 0.3 0.92
0.1 0.3 0.9
0.08 0.3 0.88
0.06 0.3 0.86
0.04 0.3 0.84
0.02 0.3 0.82
0 0.3 0.8
0.1 0.3 1
0.09 0.3 0.99
0.08 0.3 0.98
0.07 0.3 0.97
0.06 0.3 0.96
0.05 0.3 0.95
0.04 0.3 0.94
0.03 0.3 0.93
0.02 0.3 0.92
0.01 0.3 0.91
0 0.3 0.9
0 0.3 1
0 0.3 1
0 0.3 1
0 0.3 1
0 0.3 1
0 0.3 1
0 0.3 1
0 0.3 1
0 0.3 1
0 0.3 1
0 0.3 1
1 0.4 1
0.9 0.4 0.9
0.8 0.4 0.8
0.7 0.4 0.7
0.6 0.4 0.6
0.5 0.4 0.5
0.4 0.4 0.4
0.3 0.4 0.3
0.2 0.4 0.2
0.1 0.4 0.1
0 0.4 0
0.9 0.4 1
0.81 0.4 0.91
0.72 0.4 0.82
0.63 0.4 0.73
0.54 0.4 0.64
0.45 0.4 0.55
0.36 0.4 0.46
0.27 0.4 0.37
0.18 0.4 0.28
0.09 0.4 0.19
0 0.4 0.1
0.8 0.4 1
0.72 0.4 0.92
0.64 0.4 0.84
0.56 0.4 0.76
0.48 0.4 0.68
0.4 0.4 0.6
0.32 0.4 0.52
0.24 0.4 0.44
0.16 0.4 0.36
0.08 0.4 0.28
0 0.4 0.2
0.7 0.4 1
0.63 0.4 0.93
0.56 0.4 0.86
0.49 0.4 0.79
0.42 0.4 0.72
0.35 0.4 0.65
0.28 0.4 0.58
0.21 0.4 0.51
0.14 0.4 0.44
0.07 0.4 0.37
0 0.4 0.3
0.6 0.4 1
0.54 0.4 0.94
0.48 0.4 0.88
0.42 0.4 0.82
0.36 0.4 0.76
0.3 0.4 0.7
0.24 0.4 0.64
0.18 0.4 0.58
0.12 0.4 0.52
0.06 0.4 0.46
0 0.4 0.4
0.5 0.4 1
0.45 0.4 0.95
0.4 0.4 0.9
0.35 0.4 0.85
0.3 0.4 0.8
0.25 0.4 0.75
0.2 0.4 0.7
0.15 0.4 0.65
0.1 0.4 0.6
0.05 0.4 0.55
0 0.4 0.5
0.4 0.4 1
0.36 0.4 0.96
0.32 0.4 0.92
0.28 0.4 0.88
0.24 0.4 0.84
0.2 0.4 0.8
0.16 0.4 0.76
0.12 0.4 0.72
0.08 0.4 0.68
0.04 0.4 0.64
0 0.4 0.6
0.3 0.4 1
0.27 0.4 0.97
0.24 0.4 0.94
0.21 0.4 0.91
0.18 0.4 0.88
0.15 0.4 0.85
0.12 0.4 0.82
0.09 0.4 0.79
0.06 0.4 0.76
0.03 0.4 0.73
0 0.4 0.7
0.2 0.4 1
0.18 0.4 0.98
0.16 0.4 0.96
0.14 0.4 0.94
0.12 0.4 0.92
0.1 0.4 0.9
0.08 0.4 0.88
0.06 0.4 0.86
0.04 0.4 0.84
0.02 0.4 0.82
0 0.4 0.8
0.1 0.4 1
0.09 0.4 0.99
0.08 0.4 0.98
0.07 0.4 0.97
0.06 0.4 0.96
0.05 0.4 0.95
0.04 0.4 0.94
0.03 0.4 0.93
0.02 0.4 0.92
0.01 0.4 0.91
0 0.4 0.9
0 0.4 1
0 0.4 1
0 0.4 1
0 0.4 1
0 0.4 1
0 0.4 1
0 0.4 1
0 0.4 1
0 0.4 1
0 0.4 1
0 0.4 1
1 0.5 1
0.9 0.5 0.9
0.8 0.5 0.8
0.7 0.5 0.7
0.6 0.5 0.6
0.5 0.5 0.5
0.4 0.5 0.4
0.3 0.5 0.3
0.2 0.5 0.2
0.1 0.5 0.1
0 0.5 0
0.9 0.5 1
0.81 0.5 0.91
0.72 0.5 0.82
0.63 0.5 0.73
0.54 0.5 0.64
0.45 0.5 0.55
0.36 0.5 0.46
0.27 0.5 0.37
0.18 0.5 0.28
0.09 0.5 0.19
0 0.5 0.1
0.8 0.5 1
0.72 0.5 0.92
0.64 0.5 0.84
0.56 0.5 0.76
0.48 0.5 0.68
0.4 0.5 0.6
0.32 0.5 0.52
0.24 0.5 0.44
0.16 0.5 0.36
0.08 0.5 0.28
0 0.5 0.2
0.7 0.5 1
0.63 0.5 0.93
0.56 0.5 0.86
0.49 0.5 0.79
0.42 0.5 0.72
0.35 0.5 0.65
0.28 0.5 0.58
0.21 0.5 0.51
0.14 0.5 0.44
0.07 0.5 0.37
0 0.5 0.3
0.6 0.5 1
0.54 0.5 0.94
0.48 0.5 0.88
0.42 0.5 0.82
0.36 0.5 0.76
0.3 0.5 0.7
0.24 0.5 0.64
0.18 0.5 0.58
0.12 0.5 0.52
0.06 0.5 0.46
0 0.5 0.4
0.5 0.5 1
0.45 0.5 0.95
0.4 0.5 0.9
0.35 0.5 0.85
0.3 0.5 0.8
0.25 0.5 0.75
0.2 0.5 0.7
0.15 0.5 0.65
0.1 0.5 0.6
0.05 0.5 0.55
0 0.5 0.5
0.4 0.5 1
0.36 0.5 0.96
0.32 0.5 0.92
0.28 0.5 0.88
0.24 0.5 0.84
0.2 0.5 0.8
0.16 0.5 0.76
0.12 0.5 0.72
0.08 0.5 0.68
0.04 0.5 0.64
0 0.5 0.6
0.3 0.5 1
0.27 0.5 0.97
0.24 0.5 0.94
0.21 0.5 0.91
0.18 0.5 0.88
0.15 0.5 0.85
0.12 0.5 0.82
0.09 0.5 0.79
0.06 0.5 0.76
0.03 0.5 0.73
0 0.5 0.7
0.2 0.5 1
0.18 0.5 0.98
0.16 0.5 0.96
0.14 0.5 0.94
0.12 0.5 0.92
0.1 0.5 0.9
0.08 0.5 0.88
0.06 0.5 0.86
0.04 0.5 0.84
0.02 0.5 0.82
0 0.5 0.8
0.1 0.5 1
0.09 0.5 0.99
0.08 0.5 0.98
0.07 0.5 0.97
0.06 0.5 0.96
0.05 0.5 0.95
0.04 0.5 0.94
0.03 0.5 0.93
0.02 0.5 0.92
0.01 0.5 0.91
0 0.5 0.9
0 0.5 1
0 0.5 1
0 0.5 1
0 0.5 1
0 0.5 1
0 0.5 1
0 0.5 1
0 0.5 1
0 0.5 1
0 0.5 1
0 0.5 1
1 0.6 1
0.9 0.6 0.9
0.8 0.6 0.8
0.7 0.6 0.7
0.6 0.6 0.6
0.5 0.6 0.5
0.4 0.6 0.4
0.3 0.6 0.3
0.2 0.6 0.2
0.1 0.6 0.1
0 0.6 0
0.9 0.6 1
0.81 0.6 0.91
0.72 0.6 0.82
0.63 0.6 0.73
0.54 0.6 0.64
0.45 0.6 0.55
0.36 0.6 0.46
0.27 0.6 0.37
0.18 0.6 0.28
0.09 0.6 0.19
0 0.6 0.1
0.8 0.6 1
0.72 0.6 0.92
0.64 0.6 0.84
0.56 0.6 0.76
0.48 0.6 0.68
0.4 0.6 0.6
0.32 0.6 0.52
0.24 0.6 0.44
0.16 0.6 0.36
0.08 0.6 0.28
0 0.6 0.2
0.7 0.6 1
0.63 0.6 0.93
0.56 0.6 0.86
0.49 0.6 0.79
0.42 0.6 0.72
0.35 0.6 0.65
0.28 0.6 0.58
0.21 0.6 0.51
0.14 0.6 0.44
0.07 0.6 0.37
0 0.6 0.3
0.6 0.6 1
0.54 0.6 0.94
0.48 0.6 0.88
0.42 0.6 0.82
0.36 0.6 0.76
0.3 0.6 0.7
0.24 0.6 0.64
0.18 0.6 0.58
0.12 0.6 0.52
0.06 0.6 0.46
0 0.6 0.4
0.5 0.6 1
0.45 0.6 0.95
0.4 0.6 0.9
0.35 0.6 0.85
0.3 0.6 0.8
0.25 0.6 0.75
0.2 0.6 0.7
0.15 0.6 0.65
0.1 0.6 0.6
0.05 0.6 0.55
0 0.6 0.5
0.4 0.6 1
0.36 0.6 0.96
0.32 0.6 0.92
0.28 0.6 0.88
0.24 0.6 0.84
0.2 0.6 0.8
0.16 0.6 0.76
0.12 0.6 0.72
0.08 0.6 0.68
0.04 0.6 0.64
0 0.6 0.6
0.3 0.6 1
0.27 0.6 0.97
0.24 0.6 0.94
0.21 0.6 0.91
0.18 0.6 0.88
0.15 0.6 0.85
0.12 0.6 0.82
0.09 0.6 0.79
[...]
POINT_DATA 2662
SCALARS SolU double 1
LOOKUP_TABLE default
0
6.53568e-19
1.1619e-18
1.52499e-18
1.74285e-18
1.81547e-18
1.74285e-18
1.52499e-18
1.1619e-18
6.53568e-19
0
0
2.48267e-19
4.41363e-19
5.79289e-19
6.62044e-19
6.89629e-19
6.62044e-19
5.79289e-19
4.41363e-19
2.48267e-19
1.70143e-34
1.00077e-35
-2.59607e-20
-4.61524e-20
-6.05751e-20
-6.92286e-20
-7.21132e-20
-6.92286e-20
-6.05751e-20
-4.61524e-20
-2.59607e-20
1.00077e-35
0
-1.89938e-19
-3.37668e-19
-4.43189e-19
-5.06502e-19
-5.27607e-19
-5.06502e-19
-4.43189e-19
-3.37668e-19
-1.89938e-19
0
0
-2.6449e-19
-4.70205e-19
-6.17144e-19
-7.05307e-19
-7.34695e-19
-7.05307e-19
-6.17144e-19
-4.70205e-19
-2.6449e-19
2.71892e-34
0
-2.7044e-19
-4.80782e-19
-6.31027e-19
-7.21174e-19
-7.51223e-19
-7.21174e-19
-6.31027e-19
-4.80782e-19
-2.7044e-19
0
0
-2.28612e-19
-4.06422e-19
-5.33428e-19
-6.09633e-19
-6.35034e-19
-6.09633e-19
-5.33428e-19
-4.06422e-19
-2.28612e-19
0
0
-1.5983e-19
-2.84143e-19
-3.72937e-19
-4.26214e-19
-4.43973e-19
-4.26214e-19
-3.72937e-19
-2.84143e-19
-1.5983e-19
-3.28606e-34
0
-8.49183e-20
-1.50966e-19
-1.98143e-19
-2.26449e-19
-2.35884e-19
-2.26449e-19
-1.98143e-19
-1.50966e-19
-8.49183e-20
0
0
-2.47002e-20
-4.39115e-20
-5.76339e-20
-6.58673e-20
-6.86118e-20
-6.58673e-20
-5.76339e-20
-4.39115e-20
-2.47002e-20
1.52349e-34
0
0
0
0
0
0
0
0
0
0
0
0
0.20092
0.587116
0.509615
0.185622
0.0177609
0.185622
0.509615
0.587116
0.20092
0
0
0.29541
0.549799
0.410689
0.103466
-0.0457777
0.103466
0.410689
0.549799
0.29541
-4.51974e-17
-6.19242e-17
0.288017
0.397184
0.209042
-0.068745
-0.19467
-0.068745
0.209042
0.397184
0.288017
-6.19242e-17
0
0.192227
0.173212
-0.040349
-0.279821
-0.381334
-0.279821
-0.040349
0.173212
0.192227
0
0
0.0605785
-0.0484781
-0.260633
-0.456085
-0.534041
-0.456085
-0.260633
-0.0484781
0.0605785
-1.24886e-16
0
-0.0517759
-0.20254
-0.388739
-0.537383
-0.593636
-0.537383
-0.388739
-0.20254
-0.0517759
0
0
-0.109413
-0.255146
-0.39741
-0.499661
-0.536723
-0.499661
-0.39741
-0.255146
-0.109413
0
0
-0.1062
-0.212978
-0.303323
-0.363481
-0.384558
-0.363481
-0.303323
-0.212978
-0.1062
-1.84767e-16
0
-0.0633966
-0.118458
-0.160977
-0.187795
-0.196956
-0.187795
-0.160977
-0.118458
-0.0633966
0
0
-0.0176228
-0.0317471
-0.0420616
-0.048341
-0.0504494
-0.048341
-0.0420616
-0.0317471
-0.0176228
1.06844e-16
0
0
0
0
0
0
0
0
0
0
0
0
0.369027
0.900536
0.775791
0.31765
0.0829015
0.31765
0.775791
0.900536
0.369027
0
0
0.51444
0.861078
0.634682
0.182005
-0.0344175
0.182005
0.634682
0.861078
0.51444
6.51398e-17
-1.42165e-16
0.479074
0.616214
0.315234
-0.102869
-0.289617
-0.102869
0.315234
0.616214
0.479074
-1.42165e-16
0
0.307924
0.257772
-0.079487
-0.444206
-0.597019
-0.444206
-0.079487
0.257772
0.307924
0
0
0.0895978
-0.0930096
-0.426059
-0.726209
-0.844907
-0.726209
-0.426059
-0.0930096
0.0895978
-2.08347e-16
0
-0.0912352
-0.335113
-0.627703
-0.857973
-0.944585
-0.857973
-0.627703
-0.335113
-0.0912352
0
0
-0.182593
-0.417717
-0.643123
-0.803517
-0.86139
-0.803517
-0.643123
-0.417717
-0.182593
0
0
-0.176897
-0.351163
-0.496786
-0.593046
-0.626657
-0.593046
-0.496786
-0.351163
-0.176897
-3.1232e-16
0
-0.107405
-0.1996
-0.270237
-0.314574
-0.329682
-0.314574
-0.270237
-0.1996
-0.107405
0
0
-0.0311307
-0.0559693
-0.0740487
-0.0850322
-0.0887161
-0.0850322
-0.0740487
-0.0559693
-0.0311307
1.89236e-16
0
0
0
0
0
0
0
0
0
0
0
0
0.391199
0.870593
0.750886
0.335367
0.123694
0.335367
0.750886
0.870593
0.391199
0
0
0.527418
0.836889
0.614295
0.191944
-0.00810587
0.191944
0.614295
0.836889
0.527418
1.367e-16
-1.61566e-16
0.478395
0.592975
0.298178
-0.0975553
-0.272762
-0.0975553
0.298178
0.592975
0.478395
-1.61566e-16
0
0.300218
0.239683
-0.0890588
-0.437072
-0.58186
-0.437072
-0.0890588
0.239683
0.300218
0
0
0.0818542
-0.102779
-0.426702
-0.714737
-0.828049
-0.714737
-0.426702
-0.102779
0.0818542
-2.06331e-16
0
-0.095813
-0.337632
-0.622521
-0.844759
-0.928032
-0.844759
-0.622521
-0.337632
-0.095813
0
0
-0.184493
-0.417119
-0.637664
-0.79364
-0.849763
-0.79364
-0.637664
-0.417119
-0.184493
0
0
-0.17809
-0.351476
-0.495314
-0.589988
-0.622979
-0.589988
-0.495314
-0.351476
-0.17809
-3.17068e-16
0
-0.108938
-0.201862
-0.272752
-0.317128
-0.332231
-0.317128
-0.272752
-0.201862
-0.108938
0
0
-0.0322029
-0.05784
-0.0764708
-0.0877772
-0.0915675
-0.0877772
-0.0764708
-0.05784
-0.0322029
1.96004e-16
0
0
0
0
0
0
0
0
0
0
0
0
0.248123
0.527878
0.456503
0.21443
0.0914538
0.21443
0.456503
0.527878
0.248123
0
0
0.328321
0.507619
0.372268
0.122069
0.00414209
0.122069
0.372268
0.507619
0.328321
1.05743e-16
-1.0505e-16
0.293621
0.357202
0.177941
-0.058456
-0.162626
-0.058456
0.177941
0.357202
0.293621
-1.0505e-16
0
0.18177
0.141206
-0.0583682
-0.267248
-0.35382
-0.267248
-0.0583682
0.141206
0.18177
0
0
0.0474879
-0.0669036
-0.263409
-0.436867
-0.50491
-0.436867
-0.263409
-0.0669036
0.0474879
-1.25657e-16
0
-0.0607115
-0.209014
-0.381975
-0.516243
-0.566449
-0.516243
-0.381975
-0.209014
-0.0607115
0
0
-0.114308
-0.256775
-0.39102
-0.485644
-0.51964
-0.485644
-0.39102
-0.256775
-0.114308
0
0
-0.110041
-0.216507
-0.304487
-0.362263
-0.382374
-0.362263
-0.304487
-0.216507
-0.110041
-1.96779e-16
0
-0.0675302
-0.124948
-0.168655
-0.195977
-0.20527
-0.195977
-0.168655
-0.124948
-0.0675302
0
0
-0.0201474
-0.0361697
-0.0478041
-0.0548611
-0.0572262
-0.0548611
-0.0478041
-0.0361697
-0.0201474
1.22704e-16
0
0
0
0
0
0
0
0
0
0
0
0
5.91487e-17
1.02689e-16
1.82158e-16
9.37263e-17
-4.40983e-17
-3.5301e-17
1.03813e-16
1.73987e-16
9.2454e-17
0
0
8.67744e-17
2.94038e-16
1.81873e-16
-7.19027e-17
-1.69198e-16
-3.11718e-17
1.61643e-16
1.92167e-16
7.81801e-17
6.75817e-32
-2.78307e-31
2.73342e-16
5.53688e-17
-1.3192e-16
-1.30196e-16
-2.57627e-17
2.14343e-17
-3.82577e-17
-5.5654e-17
1.32726e-16
-3.16786e-31
0
4.86806e-17
-2.6866e-16
-2.45974e-16
3.29443e-17
2.20078e-16
9.70922e-17
-2.17461e-16
-3.26462e-16
1.92967e-17
0
0
-1.13187e-16
-3.12313e-16
-1.63854e-16
1.3669e-16
2.61086e-16
7.40835e-17
-2.43611e-16
-3.14243e-16
3.01577e-17
-8.64901e-31
0
-3.0697e-17
-1.26409e-16
-6.86104e-17
3.53987e-17
3.56351e-17
-9.32166e-17
-2.13e-16
-1.26181e-16
1.6118e-16
0
0
1.24063e-16
4.91809e-17
-5.90677e-17
-1.64279e-16
-2.55852e-16
-2.96341e-16
-2.23012e-16
-7.30364e-18
2.23765e-16
0
0
1.62278e-16
8.77201e-17
-8.09849e-17
-2.50334e-16
-3.55554e-16
-3.53694e-16
-2.30821e-16
-2.3925e-17
1.4185e-16
8.01652e-31
0
8.99555e-17
5.11032e-17
-4.3829e-17
-1.39805e-16
-1.98532e-16
-1.99179e-16
-1.40792e-16
-4.64583e-17
3.075e-17
0
0
2.44269e-17
2.6369e-17
1.66044e-17
3.52998e-18
-6.91149e-18
-1.13398e-17
-9.07994e-18
-2.34093e-18
3.57059e-18
-6.71107e-32
0
0
0
0
0
0
0
0
0
0
0
0
-0.248123
-0.527878
-0.456503
-0.21443
-0.0914538
-0.21443
-0.456503
-0.527878
-0.248123
0
0
-0.328321
-0.507619
-0.372268
-0.122069
-0.00414209
-0.122069
-0.372268
-0.507619
-0.328321
-1.05743e-16
1.0505e-16
-0.293621
-0.357202
-0.177941
0.058456
0.162626
0.058456
-0.177941
-0.357202
-0.293621
1.0505e-16
0
-0.18177
-0.141206
0.0583682
0.267248
0.35382
0.267248
0.0583682
-0.141206
-0.18177
0
0
-0.0474879
0.0669036
0.263409
0.436867
0.50491
0.436867
0.263409
0.0669036
-0.0474879
1.25657e-16
0
0.0607115
0.209014
0.381975
0.516243
0.566449
0.516243
0.381975
0.209014
0.0607115
0
0
0.114308
0.256775
0.39102
0.485644
0.51964
0.485644
0.39102
0.256775
0.114308
0
0
0.110041
0.216507
0.304487
0.362263
0.382374
0.362263
0.304487
0.216507
0.110041
1.96779e-16
0
0.0675302
0.124948
0.168655
0.195977
0.20527
0.195977
0.168655
0.124948
0.0675302
0
0
0.0201474
0.0361697
0.0478041
0.0548611
0.0572262
0.0548611
0.0478041
0.0361697
0.0201474
-1.22704e-16
0
0
0
0
0
0
0
0
0
0
0
0
-0.391199
-0.870593
-0.750886
-0.335367
-0.123694
-0.335367
-0.750886
-0.870593
-0.391199
0
0
-0.527418
-0.836889
-0.614295
-0.191944
0.00810587
-0.191944
-0.614295
-0.836889
-0.527418
-1.367e-16
1.61566e-16
-0.478395
-0.592975
-0.298178
0.0975553
0.272762
0.0975553
-0.298178
-0.592975
-0.478395
1.61566e-16
0
-0.300218
-0.239683
0.0890588
0.437072
0.58186
0.437072
0.0890588
-0.239683
-0.300218
0
0
-0.0818542
0.102779
0.426702
0.714737
0.828049
0.714737
0.426702
0.102779
-0.0818542
2.06331e-16
0
0.095813
0.337632
0.622521
0.844759
0.928032
0.844759
0.622521
0.337632
0.095813
0
0
0.184493
0.417119
0.637664
0.79364
0.849763
0.79364
0.637664
0.417119
0.184493
0
0
0.17809
0.351476
0.495314
0.589988
0.622979
0.589988
0.495314
0.351476
0.17809
3.17068e-16
0
0.108938
0.201862
0.272752
0.317128
0.332231
0.317128
0.272752
0.201862
0.108938
0
0
0.0322029
0.05784
0.0764708
0.0877772
0.0915675
0.0877772
0.0764708
0.05784
0.0322029
-1.96004e-16
0
0
0
0
0
0
0
0
0
0
0
0
-0.369027
-0.900536
-0.775791
-0.31765
-0.0829015
-0.31765
-0.775791
-0.900536
-0.369027
0
0
-0.51444
-0.861078
-0.634682
-0.182005
0.0344175
-0.182005
-0.634682
-0.861078
-0.51444
-6.51398e-17
1.42165e-16
-0.479074
-0.616214
-0.315234
0.102869
0.289617
0.102869
-0.315234
-0.616214
-0.479074
1.42165e-16
0
-0.307924
-0.257772
0.079487
0.444206
0.597019
0.444206
0.079487
-0.257772
-0.307924
0
0
-0.0895978
0.0930096
0.426059
0.726209
0.844907
0.726209
0.426059
0.0930096
-0.0895978
2.08347e-16
0
0.0912352
0.335113
0.627703
0.857973
0.944585
0.857973
0.627703
0.335113
0.0912352
0
0
0.182593
0.417717
0.643123
0.803517
0.86139
0.803517
0.643123
0.417717
0.182593
0
0
0.176897
0.351163
0.496786
0.593046
0.626657
0.593046
0.496786
0.351163
0.176897
3.1232e-16
0
0.107405
0.1996
0.270237
0.314574
0.329682
0.314574
0.270237
0.1996
0.107405
0
0
0.0311307
0.0559693
0.0740487
0.0850322
0.0887161
0.0850322
0.0740487
0.0559693
0.0311307
-1.89236e-16
0
0
0
0
0
0
0
0
0
0
0
0
-0.20092
-0.587116
-0.509615
-0.185622
-0.0177609
-0.185622
-0.509615
-0.587116
-0.20092
0
0
-0.29541
-0.549799
-0.410689
-0.103466
0.0457777
-0.103466
-0.410689
-0.549799
-0.29541
4.51974e-17
6.19242e-17
-0.288017
-0.397184
-0.209042
0.068745
0.19467
0.068745
-0.209042
-0.397184
-0.288017
6.19242e-17
0
-0.192227
-0.173212
0.040349
0.279821
0.381334
0.279821
0.040349
-0.173212
-0.192227
0
0
-0.0605785
0.0484781
0.260633
0.456085
0.534041
0.456085
0.260633
0.0484781
-0.0605785
1.24886e-16
0
0.0517759
0.20254
0.388739
0.537383
0.593636
0.537383
0.388739
0.20254
0.0517759
0
0
0.109413
0.255146
0.39741
0.499661
0.536723
0.499661
0.39741
0.255146
0.109413
0
0
0.1062
0.212978
0.303323
0.363481
0.384558
0.363481
0.303323
0.212978
0.1062
1.84767e-16
0
0.0633966
0.118458
0.160977
0.187795
0.196956
0.187795
0.160977
0.118458
0.0633966
0
0
0.0176228
0.0317471
0.0420616
0.048341
0.0504494
0.048341
0.0420616
0.0317471
0.0176228
-1.06844e-16
0
0
0
0
0
0
0
0
0
0
0
0
-6.53568e-19
-1.1619e-18
-1.52499e-18
-1.74285e-18
-1.81547e-18
-1.74285e-18
-1.52499e-18
-1.1619e-18
-6.53568e-19
0
0
-2.48267e-19
-4.41363e-19
-5.79289e-19
-6.62044e-19
-6.89629e-19
-6.62044e-19
-5.79289e-19
-4.41363e-19
-2.48267e-19
-1.70143e-34
-1.00077e-35
2.59607e-20
4.61524e-20
6.05751e-20
6.92286e-20
7.21132e-20
6.92286e-20
6.05751e-20
4.61524e-20
2.59607e-20
-1.00077e-35
0
1.89938e-19
3.37668e-19
4.43189e-19
5.06502e-19
5.27607e-19
5.06502e-19
4.43189e-19
3.37668e-19
1.89938e-19
0
0
2.6449e-19
4.70205e-19
6.17144e-19
7.05307e-19
7.34695e-19
7.05307e-19
6.17144e-19
4.70205e-19
2.6449e-19
-2.71892e-34
0
2.7044e-19
4.80782e-19
6.31027e-19
7.21174e-19
7.51223e-19
7.21174e-19
6.31027e-19
4.80782e-19
2.7044e-19
0
0
2.28612e-19
4.06422e-19
5.33428e-19
6.09633e-19
6.35034e-19
6.09633e-19
5.33428e-19
4.06422e-19
2.28612e-19
0
0
1.5983e-19
2.84143e-19
3.72937e-19
4.26214e-19
4.43973e-19
4.26214e-19
3.72937e-19
2.84143e-19
1.5983e-19
3.28606e-34
0
8.49183e-20
1.50966e-19
1.98143e-19
2.26449e-19
2.35884e-19
2.26449e-19
1.98143e-19
1.50966e-19
8.49183e-20
0
0
2.47002e-20
4.39115e-20
5.76339e-20
6.58673e-20
6.86118e-20
6.58673e-20
5.76339e-20
4.39115e-20
2.47002e-20
-1.52349e-34
0
0
0
0
0
0
0
0
0
0
0
0
6.53568e-19
1.1619e-18
1.52499e-18
1.74285e-18
1.81547e-18
1.74285e-18
1.52499e-18
1.1619e-18
6.53568e-19
0
0
2.48267e-19
4.41363e-19
5.79289e-19
6.62044e-19
6.89629e-19
6.62044e-19
5.79289e-19
4.41363e-19
2.48267e-19
1.70143e-34
1.00077e-35
-2.59607e-20
-4.61524e-20
-6.05751e-20
-6.92286e-20
-7.21132e-20
-6.92286e-20
-6.05751e-20
-4.61524e-20
-2.59607e-20
1.00077e-35
0
-1.89938e-19
-3.37668e-19
-4.43189e-19
-5.06502e-19
-5.27607e-19
-5.06502e-19
-4.43189e-19
-3.37668e-19
-1.89938e-19
0
0
-2.6449e-19
-4.70205e-19
-6.17144e-19
-7.05307e-19
-7.34695e-19
-7.05307e-19
-6.17144e-19
-4.70205e-19
-2.6449e-19
2.71892e-34
0
-2.7044e-19
-4.80782e-19
-6.31027e-19
-7.21174e-19
-7.51223e-19
-7.21174e-19
-6.31027e-19
-4.80782e-19
-2.7044e-19
0
0
-2.28612e-19
-4.06422e-19
-5.33428e-19
-6.09633e-19
-6.35034e-19
-6.09633e-19
-5.33428e-19
-4.06422e-19
-2.28612e-19
0
0
-1.5983e-19
-2.84143e-19
-3.72937e-19
-4.26214e-19
-4.43973e-19
-4.26214e-19
-3.72937e-19
-2.84143e-19
-1.5983e-19
-3.28606e-34
0
-8.49183e-20
-1.50966e-19
-1.98143e-19
-2.26449e-19
-2.35884e-19
-2.26449e-19
-1.98143e-19
-1.50966e-19
-8.49183e-20
0
0
-2.47002e-20
-4.39115e-20
-5.76339e-20
-6.58673e-20
-6.86118e-20
-6.58673e-20
-5.76339e-20
-4.39115e-20
-2.47002e-20
1.52349e-34
0
0
0
0
0
0
0
0
0
0
0
0
0.20092
0.587116
0.509615
0.185622
0.0177609
0.185622
0.509615
0.587116
0.20092
0
0
0.29541
0.549799
0.410689
0.103466
-0.0457777
0.103466
0.410689
0.549799
0.29541
-4.51974e-17
-6.19242e-17
0.288017
0.397184
0.209042
-0.068745
-0.19467
-0.068745
0.209042
0.397184
0.288017
-6.19242e-17
0
0.192227
0.173212
-0.040349
-0.279821
-0.381334
-0.279821
-0.040349
0.173212
0.192227
0
0
0.0605785
-0.0484781
-0.260633
-0.456085
-0.534041
-0.456085
-0.260633
-0.0484781
0.0605785
-1.24886e-16
0
-0.0517759
-0.20254
-0.388739
-0.537383
-0.593636
-0.537383
-0.388739
-0.20254
-0.0517759
0
0
-0.109413
-0.255146
-0.39741
-0.499661
-0.536723
-0.499661
-0.39741
-0.255146
-0.109413
0
0
-0.1062
-0.212978
-0.303323
-0.363481
-0.384558
-0.363481
-0.303323
-0.212978
-0.1062
-1.84767e-16
0
-0.0633966
-0.118458
-0.160977
-0.187795
-0.196956
-0.187795
-0.160977
-0.118458
-0.0633966
0
0
-0.0176228
-0.0317471
-0.0420616
-0.048341
-0.0504494
-0.048341
-0.0420616
-0.0317471
-0.0176228
1.06844e-16
0
0
0
0
0
0
0
0
0
0
0
0
0.369027
0.900536
0.775791
0.31765
0.0829015
0.31765
0.775791
0.900536
0.369027
0
0
0.51444
0.861078
0.634682
0.182005
-0.0344175
0.182005
0.634682
0.861078
0.51444
6.51398e-17
-1.42165e-16
0.479074
0.616214
0.315234
-0.102869
-0.289617
-0.102869
0.315234
0.616214
0.479074
-1.42165e-16
0
0.307924
0.257772
-0.079487
-0.444206
-0.597019
-0.444206
-0.079487
0.257772
0.307924
0
0
0.0895978
-0.0930096
-0.426059
-0.726209
-0.844907
-0.726209
-0.426059
-0.0930096
0.0895978
-2.08347e-16
0
-0.0912352
-0.335113
-0.627703
-0.857973
-0.944585
-0.857973
-0.627703
-0.335113
-0.0912352
0
0
-0.182593
-0.417717
-0.643123
-0.803517
-0.86139
-0.803517
-0.643123
-0.417717
-0.182593
0
0
-0.176897
-0.351163
-0.496786
-0.593046
-0.626657
-0.593046
-0.496786
-0.351163
-0.176897
-3.1232e-16
0
-0.107405
-0.1996
-0.270237
-0.314574
-0.329682
-0.314574
-0.270237
-0.1996
-0.107405
0
0
-0.0311307
-0.0559693
-0.0740487
-0.0850322
-0.0887161
-0.0850322
-0.0740487
-0.0559693
-0.0311307
1.89236e-16
0
0
0
0
0
0
0
0
0
0
0
0
0.391199
0.870593
0.750886
0.335367
0.123694
0.335367
0.750886
0.870593
0.391199
0
0
0.527418
0.836889
0.614295
0.191944
-0.00810587
0.191944
0.614295
0.836889
0.527418
1.367e-16
-1.61566e-16
0.478395
0.592975
0.298178
-0.0975553
-0.272762
-0.0975553
0.298178
0.592975
0.478395
-1.61566e-16
0
0.300218
0.239683
-0.0890588
-0.437072
-0.58186
-0.437072
-0.0890588
0.239683
0.300218
0
0
0.0818542
-0.102779
-0.426702
-0.714737
-0.828049
-0.714737
-0.426702
-0.102779
0.0818542
-2.06331e-16
0
-0.095813
-0.337632
-0.622521
-0.844759
-0.928032
-0.844759
-0.622521
-0.337632
-0.095813
0
0
-0.184493
-0.417119
-0.637664
-0.79364
-0.849763
-0.79364
-0.637664
-0.417119
-0.184493
0
0
-0.17809
-0.351476
-0.495314
-0.589988
-0.622979
-0.589988
-0.495314
-0.351476
-0.17809
-3.17068e-16
0
-0.108938
-0.201862
-0.272752
-0.317128
-0.332231
-0.317128
-0.272752
-0.201862
-0.108938
0
0
-0.0322029
-0.05784
-0.0764708
-0.0877772
-0.0915675
-0.0877772
-0.0764708
-0.05784
-0.0322029
1.96004e-16
0
0
0
0
0
0
0
0
0
0
0
0
0.248123
0.527878
0.456503
0.21443
0.0914538
0.21443
0.456503
0.527878
0.248123
0
0
0.328321
0.507619
0.372268
0.122069
0.00414209
0.122069
0.372268
0.507619
0.328321
1.05743e-16
-1.0505e-16
0.293621
0.357202
0.177941
-0.058456
-0.162626
-0.058456
0.177941
0.357202
0.293621
-1.0505e-16
0
0.18177
0.141206
-0.0583682
-0.267248
-0.35382
-0.267248
-0.0583682
0.141206
0.18177
0
0
0.0474879
-0.0669036
-0.263409
-0.436867
-0.50491
-0.436867
-0.263409
-0.0669036
0.0474879
-1.25657e-16
0
-0.0607115
-0.209014
-0.381975
-0.516243
-0.566449
-0.516243
-0.381975
-0.209014
-0.0607115
0
0
-0.114308
-0.256775
-0.39102
-0.485644
-0.51964
-0.485644
-0.39102
-0.256775
-0.114308
0
0
-0.110041
-0.216507
-0.304487
-0.362263
-0.382374
-0.362263
-0.304487
-0.216507
-0.110041
-1.96779e-16
0
-0.0675302
-0.124948
-0.168655
-0.195977
-0.20527
-0.195977
-0.168655
-0.124948
-0.0675302
0
0
-0.0201474
-0.0361697
-0.0478041
-0.0548611
-0.0572262
-0.0548611
-0.0478041
-0.0361697
-0.0201474
1.22704e-16
0
0
0
0
0
0
0
0
0
0
0
0
9.2454e-17
1.73987e-16
1.03813e-16
-3.5301e-17
-4.40983e-17
9.37263e-17
1.82158e-16
1.02689e-16
5.91487e-17
0
0
1.3997e-16
2.38854e-16
1.31587e-16
-7.78664e-17
-1.67435e-16
-4.5122e-17
1.57426e-16
2.19896e-16
9.28626e-17
7.6173e-34
-1.75513e-31
1.06962e-16
-9.68416e-18
-6.19451e-17
-6.68434e-17
-7.21154e-17
-8.37315e-17
-7.13563e-17
2.791e-18
1.16871e-16
-1.60936e-31
0
-1.30164e-16
-3.17324e-16
-1.92949e-16
6.20151e-17
1.84951e-16
6.95926e-17
-1.71794e-16
-2.91968e-16
-1.31736e-16
0
0
-1.18407e-16
-2.79043e-16
-1.465e-16
1.16981e-16
2.55512e-16
1.49417e-16
-1.08915e-16
-2.80019e-16
-1.76921e-16
-3.72692e-32
0
1.10235e-16
-3.63076e-17
-8.42577e-17
-2.74705e-17
3.11572e-17
2.44313e-17
-2.3716e-17
-2.76217e-17
4.87843e-17
0
0
2.54811e-16
9.22446e-17
-1.29359e-16
-2.63909e-16
-2.76524e-16
-1.79693e-16
-5.2322e-18
1.89071e-16
2.78968e-16
0
0
1.85972e-16
3.72902e-17
-1.89785e-16
-3.46557e-16
-3.64313e-16
-2.35962e-16
-6.69393e-18
2.26511e-16
3.06671e-16
1.11391e-30
0
5.55902e-17
-1.43747e-17
-1.10598e-16
-1.69709e-16
-1.60504e-16
-8.12611e-17
4.18792e-17
1.55483e-16
1.78348e-16
0
0
1.76126e-17
2.28546e-17
2.54106e-17
3.11364e-17
4.21666e-17
5.69988e-17
7.05582e-17
7.42396e-17
5.59282e-17
-4.48672e-31
0
0
0
0
0
0
0
0
0
0
0
0
-0.248123
-0.527878
-0.456503
-0.21443
-0.0914538
-0.21443
-0.456503
-0.527878
-0.248123
0
0
-0.328321
-0.507619
-0.372268
-0.122069
-0.00414209
-0.122069
-0.372268
-0.507619
-0.328321
-1.05743e-16
1.0505e-16
-0.293621
-0.357202
-0.177941
0.058456
0.162626
0.058456
-0.177941
-0.357202
-0.293621
1.0505e-16
0
-0.18177
-0.141206
0.0583682
0.267248
0.35382
0.267248
0.0583682
-0.141206
-0.18177
0
0
-0.0474879
0.0669036
0.263409
0.436867
0.50491
0.436867
0.263409
0.0669036
-0.0474879
1.25657e-16
0
0.0607115
0.209014
0.381975
0.516243
0.566449
0.516243
0.381975
0.209014
0.0607115
0
0
0.114308
0.256775
0.39102
0.485644
0.51964
0.485644
0.39102
0.256775
0.114308
0
0
0.110041
0.216507
0.304487
0.362263
0.382374
0.362263
0.304487
0.216507
0.110041
1.96779e-16
0
0.0675302
0.124948
0.168655
0.195977
0.20527
0.195977
0.168655
0.124948
0.0675302
0
0
0.0201474
0.0361697
0.0478041
0.0548611
0.0572262
0.0548611
0.0478041
0.0361697
0.0201474
-1.22704e-16
0
0
0
0
0
0
0
0
0
0
0
0
-0.391199
-0.870593
-0.750886
-0.335367
-0.123694
-0.335367
-0.750886
-0.870593
-0.391199
0
0
-0.527418
-0.836889
-0.614295
-0.191944
0.00810587
-0.191944
-0.614295
-0.836889
-0.527418
-1.367e-16
1.61566e-16
-0.478395
-0.592975
-0.298178
0.0975553
0.272762
0.0975553
-0.298178
-0.592975
-0.478395
1.61566e-16
0
-0.300218
-0.239683
0.0890588
0.437072
0.58186
0.437072
0.0890588
-0.239683
-0.300218
0
0
-0.0818542
0.102779
0.426702
0.714737
0.828049
0.714737
0.426702
0.102779
-0.0818542
2.06331e-16
0
0.095813
0.337632
0.622521
0.844759
0.928032
0.844759
0.622521
0.337632
0.095813
0
0
0.184493
0.417119
0.637664
0.79364
0.849763
0.79364
0.637664
0.417119
0.184493
0
0
0.17809
0.351476
0.495314
0.589988
0.622979
0.589988
0.495314
0.351476
0.17809
3.17068e-16
0
0.108938
0.201862
0.272752
0.317128
0.332231
0.317128
0.272752