# vtk DataFile Version 3.0
AMR mesh
ASCII
DATASET UNSTRUCTURED_GRID
POINTS 16 double
1 0 1
0 0 0
0 0 1
0 0 1
1 1 1
0 1 0
0 1 1
0 1 1
0 0 0
1 0 1
1 0 0
1 0 0
0 1 0
1 1 1
1 1 0
1 1 0

CELLS 2 18
8 0 1 3 2 4 5 7 6 
8 8 9 11 10 12 13 15 14 
CELL_TYPES 2
12
12

POINT_DATA 16
SCALARS SolU double 1
LOOKUP_TABLE default
0
0
0
0
0
0
0
0
0
0
0
0
0
0
0
0

