# vtk DataFile Version 3.0
AMR mesh
ASCII
DATASET UNSTRUCTURED_GRID
POINTS 1458 double
1 0 1
0.875 0 0.875
0.75 0 0.75
0.625 0 0.625
0.5 0 0.5
0.375 0 0.375
0.25 0 0.25
0.125 0 0.125
0 0 0
0.875 0 1
0.765625 0 0.890625
0.65625 0 0.78125
0.546875 0 0.671875
0.4375 0 0.5625
0.328125 0 0.453125
0.21875 0 0.34375
0.109375 0 0.234375
0 0 0.125
0.75 0 1
0.65625 0 0.90625
0.5625 0 0.8125
0.46875 0 0.71875
0.375 0 0.625
0.28125 0 0.53125
0.1875 0 0.4375
0.09375 0 0.34375
0 0 0.25
0.625 0 1
0.546875 0 0.921875
0.46875 0 0.84375
0.390625 0 0.765625
0.3125 0 0.6875
0.234375 0 0.609375
0.15625 0 0.53125
0.078125 0 0.453125
0 0 0.375
0.5 0 1
0.4375 0 0.9375
0.375 0 0.875
0.3125 0 0.8125
0.25 0 0.75
0.1875 0 0.6875
0.125 0 0.625
0.0625 0 0.5625
0 0 0.5
0.375 0 1
0.328125 0 0.953125
0.28125 0 0.90625
0.234375 0 0.859375
0.1875 0 0.8125
0.140625 0 0.765625
0.09375 0 0.71875
0.046875 0 0.671875
0 0 0.625
0.25 0 1
0.21875 0 0.96875
0.1875 0 0.9375
0.15625 0 0.90625
0.125 0 0.875
0.09375 0 0.84375
0.0625 0 0.8125
0.03125 0 0.78125
0 0 0.75
0.125 0 1
0.109375 0 0.984375
0.09375 0 0.96875
0.078125 0 0.953125
0.0625 0 0.9375
0.046875 0 0.921875
0.03125 0 0.90625
0.015625 0 0.890625
0 0 0.875
0 0 1
0 0 1
0 0 1
0 0 1
0 0 1
0 0 1
0 0 1
0 0 1
0 0 1
1 0.125 1
0.875 0.125 0.875
0.75 0.125 0.75
0.625 0.125 0.625
0.5 0.125 0.5
0.375 0.125 0.375
0.25 0.125 0.25
0.125 0.125 0.125
0 0.125 0
0.875 0.125 1
0.765625 0.125 0.890625
0.65625 0.125 0.78125
0.546875 0.125 0.671875
0.4375 0.125 0.5625
0.328125 0.125 0.453125
0.21875 0.125 0.34375
0.109375 0.125 0.234375
0 0.125 0.125
0.75 0.125 1
0.65625 0.125 0.90625
0.5625 0.125 0.8125
0.46875 0.125 0.71875
0.375 0.125 0.625
0.28125 0.125 0.53125
0.1875 0.125 0.4375
0.09375 0.125 0.34375
0 0.125 0.25
0.625 0.125 1
0.546875 0.125 0.921875
0.46875 0.125 0.84375
0.390625 0.125 0.765625
0.3125 0.125 0.6875
0.234375 0.125 0.609375
0.15625 0.125 0.53125
0.078125 0.125 0.453125
0 0.125 0.375
0.5 0.125 1
0.4375 0.125 0.9375
0.375 0.125 0.875
0.3125 0.125 0.8125
0.25 0.125 0.75
0.1875 0.125 0.6875
0.125 0.125 0.625
0.0625 0.125 0.5625
0 0.125 0.5
0.375 0.125 1
0.328125 0.125 0.953125
0.28125 0.125 0.90625
0.234375 0.125 0.859375
0.1875 0.125 0.8125
0.140625 0.125 0.765625
0.09375 0.125 0.71875
0.046875 0.125 0.671875
0 0.125 0.625
0.25 0.125 1
0.21875 0.125 0.96875
0.1875 0.125 0.9375
0.15625 0.125 0.90625
0.125 0.125 0.875
0.09375 0.125 0.84375
0.0625 0.125 0.8125
0.03125 0.125 0.78125
0 0.125 0.75
0.125 0.125 1
0.109375 0.125 0.984375
0.09375 0.125 0.96875
0.078125 0.125 0.953125
0.0625 0.125 0.9375
0.046875 0.125 0.921875
0.03125 0.125 0.90625
0.015625 0.125 0.890625
0 0.125 0.875
0 0.125 1
0 0.125 1
0 0.125 1
0 0.125 1
0 0.125 1
0 0.125 1
0 0.125 1
0 0.125 1
0 0.125 1
1 0.25 1
0.875 0.25 0.875
0.75 0.25 0.75
0.625 0.25 0.625
0.5 0.25 0.5
0.375 0.25 0.375
0.25 0.25 0.25
0.125 0.25 0.125
0 0.25 0
0.875 0.25 1
0.765625 0.25 0.890625
0.65625 0.25 0.78125
0.546875 0.25 0.671875
0.4375 0.25 0.5625
0.328125 0.25 0.453125
0.21875 0.25 0.34375
0.109375 0.25 0.234375
0 0.25 0.125
0.75 0.25 1
0.65625 0.25 0.90625
0.5625 0.25 0.8125
0.46875 0.25 0.71875
0.375 0.25 0.625
0.28125 0.25 0.53125
0.1875 0.25 0.4375
0.09375 0.25 0.34375
0 0.25 0.25
0.625 0.25 1
0.546875 0.25 0.921875
0.46875 0.25 0.84375
0.390625 0.25 0.765625
0.3125 0.25 0.6875
0.234375 0.25 0.609375
0.15625 0.25 0.53125
0.078125 0.25 0.453125
0 0.25 0.375
0.5 0.25 1
0.4375 0.25 0.9375
0.375 0.25 0.875
0.3125 0.25 0.8125
0.25 0.25 0.75
0.1875 0.25 0.6875
0.125 0.25 0.625
0.0625 0.25 0.5625
0 0.25 0.5
0.375 0.25 1
0.328125 0.25 0.953125
0.28125 0.25 0.90625
0.234375 0.25 0.859375
0.1875 0.25 0.8125
0.140625 0.25 0.765625
0.09375 0.25 0.71875
0.046875 0.25 0.671875
0 0.25 0.625
0.25 0.25 1
0.21875 0.25 0.96875
0.1875 0.25 0.9375
0.15625 0.25 0.90625
0.125 0.25 0.875
0.09375 0.25 0.84375
0.0625 0.25 0.8125
0.03125 0.25 0.78125
0 0.25 0.75
0.125 0.25 1
0.109375 0.25 0.984375
0.09375 0.25 0.96875
0.078125 0.25 0.953125
0.0625 0.25 0.9375
0.046875 0.25 0.921875
0.03125 0.25 0.90625
0.015625 0.25 0.890625
0 0.25 0.875
0 0.25 1
0 0.25 1
0 0.25 1
0 0.25 1
0 0.25 1
0 0.25 1
0 0.25 1
0 0.25 1
0 0.25 1
1 0.375 1
0.875 0.375 0.875
0.75 0.375 0.75
0.625 0.375 0.625
0.5 0.375 0.5
0.375 0.375 0.375
0.25 0.375 0.25
0.125 0.375 0.125
0 0.375 0
0.875 0.375 1
0.765625 0.375 0.890625
0.65625 0.375 0.78125
0.546875 0.375 0.671875
0.4375 0.375 0.5625
0.328125 0.375 0.453125
0.21875 0.375 0.34375
0.109375 0.375 0.234375
0 0.375 0.125
0.75 0.375 1
0.65625 0.375 0.90625
0.5625 0.375 0.8125
0.46875 0.375 0.71875
0.375 0.375 0.625
0.28125 0.375 0.53125
0.1875 0.375 0.4375
0.09375 0.375 0.34375
0 0.375 0.25
0.625 0.375 1
0.546875 0.375 0.921875
0.46875 0.375 0.84375
0.390625 0.375 0.765625
0.3125 0.375 0.6875
0.234375 0.375 0.609375
0.15625 0.375 0.53125
0.078125 0.375 0.453125
0 0.375 0.375
0.5 0.375 1
0.4375 0.375 0.9375
0.375 0.375 0.875
0.3125 0.375 0.8125
0.25 0.375 0.75
0.1875 0.375 0.6875
0.125 0.375 0.625
0.0625 0.375 0.5625
0 0.375 0.5
0.375 0.375 1
0.328125 0.375 0.953125
0.28125 0.375 0.90625
0.234375 0.375 0.859375
0.1875 0.375 0.8125
0.140625 0.375 0.765625
0.09375 0.375 0.71875
0.046875 0.375 0.671875
0 0.375 0.625
0.25 0.375 1
0.21875 0.375 0.96875
0.1875 0.375 0.9375
0.15625 0.375 0.90625
0.125 0.375 0.875
0.09375 0.375 0.84375
0.0625 0.375 0.8125
0.03125 0.375 0.78125
0 0.375 0.75
0.125 0.375 1
0.109375 0.375 0.984375
0.09375 0.375 0.96875
0.078125 0.375 0.953125
0.0625 0.375 0.9375
0.046875 0.375 0.921875
0.03125 0.375 0.90625
0.015625 0.375 0.890625
0 0.375 0.875
0 0.375 1
0 0.375 1
0 0.375 1
0 0.375 1
0 0.375 1
0 0.375 1
0 0.375 1
0 0.375 1
0 0.375 1
1 0.5 1
0.875 0.5 0.875
0.75 0.5 0.75
0.625 0.5 0.625
0.5 0.5 0.5
0.375 0.5 0.375
0.25 0.5 0.25
0.125 0.5 0.125
0 0.5 0
0.875 0.5 1
0.765625 0.5 0.890625
0.65625 0.5 0.78125
0.546875 0.5 0.671875
0.4375 0.5 0.5625
0.328125 0.5 0.453125
0.21875 0.5 0.34375
0.109375 0.5 0.234375
0 0.5 0.125
0.75 0.5 1
0.65625 0.5 0.90625
0.5625 0.5 0.8125
0.46875 0.5 0.71875
0.375 0.5 0.625
0.28125 0.5 0.53125
0.1875 0.5 0.4375
0.09375 0.5 0.34375
0 0.5 0.25
0.625 0.5 1
0.546875 0.5 0.921875
0.46875 0.5 0.84375
0.390625 0.5 0.765625
0.3125 0.5 0.6875
0.234375 0.5 0.609375
0.15625 0.5 0.53125
0.078125 0.5 0.453125
0 0.5 0.375
0.5 0.5 1
0.4375 0.5 0.9375
0.375 0.5 0.875
0.3125 0.5 0.8125
0.25 0.5 0.75
0.1875 0.5 0.6875
0.125 0.5 0.625
0.0625 0.5 0.5625
0 0.5 0.5
0.375 0.5 1
0.328125 0.5 0.953125
0.28125 0.5 0.90625
0.234375 0.5 0.859375
0.1875 0.5 0.8125
0.140625 0.5 0.765625
0.09375 0.5 0.71875
0.046875 0.5 0.671875
0 0.5 0.625
0.25 0.5 1
0.21875 0.5 0.96875
0.1875 0.5 0.9375
0.15625 0.5 0.90625
0.125 0.5 0.875
0.09375 0.5 0.84375
0.0625 0.5 0.8125
0.03125 0.5 0.78125
0 0.5 0.75
0.125 0.5 1
0.109375 0.5 0.984375
0.09375 0.5 0.96875
0.078125 0.5 0.953125
0.0625 0.5 0.9375
0.046875 0.5 0.921875
0.03125 0.5 0.90625
0.015625 0.5 0.890625
0 0.5 0.875
0 0.5 1
0 0.5 1
0 0.5 1
0 0.5 1
0 0.5 1
0 0.5 1
0 0.5 1
0 0.5 1
0 0.5 1
1 0.625 1
0.875 0.625 0.875
0.75 0.625 0.75
0.625 0.625 0.625
0.5 0.625 0.5
0.375 0.625 0.375
0.25 0.625 0.25
0.125 0.625 0.125
0 0.625 0
0.875 0.625 1
0.765625 0.625 0.890625
0.65625 0.625 0.78125
0.546875 0.625 0.671875
0.4375 0.625 0.5625
0.328125 0.625 0.453125
0.21875 0.625 0.34375
0.109375 0.625 0.234375
0 0.625 0.125
0.75 0.625 1
0.65625 0.625 0.90625
0.5625 0.625 0.8125
0.46875 0.625 0.71875
0.375 0.625 0.625
0.28125 0.625 0.53125
0.1875 0.625 0.4375
0.09375 0.625 0.34375
0 0.625 0.25
0.625 0.625 1
0.546875 0.625 0.921875
0.46875 0.625 0.84375
0.390625 0.625 0.765625
0.3125 0.625 0.6875
0.234375 0.625 0.609375
0.15625 0.625 0.53125
0.078125 0.625 0.453125
0 0.625 0.375
0.5 0.625 1
0.4375 0.625 0.9375
0.375 0.625 0.875
0.3125 0.625 0.8125
0.25 0.625 0.75
0.1875 0.625 0.6875
0.125 0.625 0.625
0.0625 0.625 0.5625
0 0.625 0.5
0.375 0.625 1
0.328125 0.625 0.953125
0.28125 0.625 0.90625
0.234375 0.625 0.859375
0.1875 0.625 0.8125
0.140625 0.625 0.765625
0.09375 0.625 0.71875
0.046875 0.625 0.671875
0 0.625 0.625
0.25 0.625 1
0.21875 0.625 0.96875
0.1875 0.625 0.9375
0.15625 0.625 0.90625
0.125 0.625 0.875
0.09375 0.625 0.84375
0.0625 0.625 0.8125
0.03125 0.625 0.78125
0 0.625 0.75
0.125 0.625 1
0.109375 0.625 0.984375
0.09375 0.625 0.96875
0.078125 0.625 0.953125
0.0625 0.625 0.9375
0.046875 0.625 0.921875
0.03125 0.625 0.90625
0.015625 0.625 0.890625
0 0.625 0.875
0 0.625 1
0 0.625 1
0 0.625 1
0 0.625 1
0 0.625 1
0 0.625 1
0 0.625 1
0 0.625 1
0 0.625 1
1 0.75 1
0.875 0.75 0.875
0.75 0.75 0.75
0.625 0.75 0.625
0.5 0.75 0.5
0.375 0.75 0.375
0.25 0.75 0.25
0.125 0.75 0.125
0 0.75 0
0.875 0.75 1
0.765625 0.75 0.890625
0.65625 0.75 0.78125
0.546875 0.75 0.671875
0.4375 0.75 0.5625
0.328125 0.75 0.453125
0.21875 0.75 0.34375
0.109375 0.75 0.234375
0 0.75 0.125
0.75 0.75 1
0.65625 0.75 0.90625
0.5625 0.75 0.8125
0.46875 0.75 0.71875
0.375 0.75 0.625
0.28125 0.75 0.53125
0.1875 0.75 0.4375
0.09375 0.75 0.34375
0 0.75 0.25
0.625 0.75 1
0.546875 0.75 0.921875
0.46875 0.75 0.84375
0.390625 0.75 0.765625
0.3125 0.75 0.6875
0.234375 0.75 0.609375
0.15625 0.75 0.53125
0.078125 0.75 0.453125
0 0.75 0.375
0.5 0.75 1
0.4375 0.75 0.9375
0.375 0.75 0.875
0.3125 0.75 0.8125
0.25 0.75 0.75
0.1875 0.75 0.6875
0.125 0.75 0.625
0.0625 0.75 0.5625
0 0.75 0.5
0.375 0.75 1
0.328125 0.75 0.953125
0.28125 0.75 0.90625
0.234375 0.75 0.859375
0.1875 0.75 0.8125
0.140625 0.75 0.765625
0.09375 0.75 0.71875
0.046875 0.75 0.671875
0 0.75 0.625
0.25 0.75 1
0.21875 0.75 0.96875
0.1875 0.75 0.9375
0.15625 0.75 0.90625
0.125 0.75 0.875
0.09375 0.75 0.84375
0.0625 0.75 0.8125
0.03125 0.75 0.78125
0 0.75 0.75
0.125 0.75 1
0.109375 0.75 0.984375
0.09375 0.75 0.96875
0.078125 0.75 0.953125
0.0625 0.75 0.9375
0.046875 0.75 0.921875
0.03125 0.75 0.90625
0.015625 0.75 0.890625
0 0.75 0.875
0 0.75 1
0 0.75 1
0 0.75 1
0 0.75 1
0 0.75 1
0 0.75 1
0 0.75 1
0 0.75 1
0 0.75 1
1 0.875 1
0.875 0.875 0.875
0.75 0.875 0.75
0.625 0.875 0.625
0.5 0.875 0.5
0.375 0.875 0.375
0.25 0.875 0.25
0.125 0.875 0.125
0 0.875 0
0.875 0.875 1
0.765625 0.875 0.890625
0.65625 0.875 0.78125
[...]
POINT_DATA 1458
SCALARS SolU double 1
LOOKUP_TABLE default
0
7.94266e-19
1.3616e-18
1.702e-18
1.81547e-18
1.702e-18
1.3616e-18
7.94266e-19
0
0
2.04452e-19
3.5049e-19
4.38112e-19
4.6732e-19
4.38112e-19
3.5049e-19
2.04452e-19
0
0
-1.46355e-19
-2.50894e-19
-3.13618e-19
-3.34526e-19
-3.13618e-19
-2.50894e-19
-1.46355e-19
0
1.24886e-34
-3.07583e-19
-5.27286e-19
-6.59107e-19
-7.03047e-19
-6.59107e-19
-5.27286e-19
-3.07583e-19
1.24886e-34
0
-3.2866e-19
-5.63417e-19
-7.04271e-19
-7.51223e-19
-7.04271e-19
-5.63417e-19
-3.2866e-19
0
0
-2.59012e-19
-4.44021e-19
-5.55027e-19
-5.92028e-19
-5.55027e-19
-4.44021e-19
-2.59012e-19
0
3.00597e-34
-1.48068e-19
-2.53831e-19
-3.17289e-19
-3.38442e-19
-3.17289e-19
-2.53831e-19
-1.48068e-19
3.00597e-34
0
-4.5255e-20
-7.758e-20
-9.6975e-20
-1.0344e-19
-9.6975e-20
-7.758e-20
-4.5255e-20
0
0
0
0
0
0
0
0
0
0
0
0.399287
0.712035
0.318967
0.0319839
0.318967
0.712035
0.399287
0
0
0.475095
0.57462
0.166972
-0.0839475
0.166972
0.57462
0.475095
0
0
0.344056
0.24599
-0.139659
-0.341605
-0.139659
0.24599
0.344056
0
-8.96201e-17
0.103959
-0.119664
-0.450438
-0.601208
-0.450438
-0.119664
0.103959
-8.96201e-17
0
-0.100751
-0.357275
-0.609002
-0.711612
-0.609002
-0.357275
-0.100751
0
0
-0.179022
-0.386711
-0.548176
-0.608632
-0.548176
-0.386711
-0.179022
0
2.37449e-16
-0.132588
-0.247407
-0.324834
-0.352115
-0.324834
-0.247407
-0.132588
2.37449e-16
0
-0.0411805
-0.0721182
-0.0912986
-0.0977959
-0.0912986
-0.0721182
-0.0411805
0
0
0
0
0
0
0
0
0
0
0
0.581697
0.940182
0.456199
0.110732
0.456199
0.940182
0.581697
0
0
0.681266
0.769351
0.238295
-0.0784905
0.238295
0.769351
0.681266
0
0
0.475369
0.315636
-0.196237
-0.457832
-0.196237
0.315636
0.475369
0
-1.30986e-16
0.131848
-0.184584
-0.6272
-0.825716
-0.6272
-0.184584
0.131848
-1.30986e-16
0
-0.151572
-0.507244
-0.847025
-0.98409
-0.847025
-0.507244
-0.151572
0
0
-0.25796
-0.547427
-0.76882
-0.851133
-0.76882
-0.547427
-0.25796
0
3.49246e-16
-0.192542
-0.356306
-0.465617
-0.503953
-0.465617
-0.356306
-0.192542
3.49246e-16
0
-0.0621284
-0.10848
-0.13709
-0.146761
-0.13709
-0.10848
-0.0621284
0
0
0
0
0
0
0
0
0
0
0
0.414789
0.642249
0.328531
0.106658
0.328531
0.642249
0.414789
0
0
0.478739
0.524945
0.169061
-0.0400331
0.169061
0.524945
0.478739
0
0
0.32714
0.208881
-0.138047
-0.313205
-0.138047
0.208881
0.32714
0
-9.19146e-17
0.0856619
-0.136097
-0.437652
-0.571786
-0.437652
-0.136097
0.0856619
-9.19146e-17
0
-0.110137
-0.357116
-0.589761
-0.6831
-0.589761
-0.357116
-0.110137
0
0
-0.182611
-0.38405
-0.536833
-0.593432
-0.536833
-0.38405
-0.182611
0
2.49078e-16
-0.136504
-0.251621
-0.328086
-0.354843
-0.328086
-0.251621
-0.136504
2.49078e-16
0
-0.0447198
-0.0779836
-0.0984764
-0.105397
-0.0984764
-0.0779836
-0.0447198
0
0
0
0
0
0
0
0
0
0
0
5.05739e-17
1.57938e-16
1.29415e-16
-4.40983e-17
-6.29222e-18
1.59311e-16
1.2003e-16
0
0
2.31404e-16
2.10162e-16
-7.1874e-17
-1.60766e-16
1.93738e-17
1.59858e-16
1.30281e-16
0
0
1.08087e-16
-2.15985e-16
-1.11888e-16
1.0692e-16
1.85002e-17
-2.2203e-16
-2.10404e-17
0
-1.98859e-31
-1.80091e-16
-3.05945e-16
5.19074e-17
2.78802e-16
9.38054e-18
-3.51495e-16
-1.03271e-16
-4.24232e-31
0
-6.593e-17
-1.13774e-16
1.4541e-17
3.56351e-17
-1.32149e-16
-2.04051e-16
8.98051e-17
0
0
1.4099e-16
5.46423e-18
-1.71065e-16
-3.06218e-16
-3.18381e-16
-1.27638e-16
1.78243e-16
0
-6.1425e-31
1.30387e-16
4.23741e-18
-1.8252e-16
-3.0105e-16
-2.81355e-16
-1.25127e-16
5.9441e-17
-5.83959e-31
0
3.78896e-17
2.05598e-17
-1.40985e-17
-4.00536e-17
-4.37637e-17
-2.52845e-17
1.40855e-19
0
0
0
0
0
0
0
0
0
0
0
-0.414789
-0.642249
-0.328531
-0.106658
-0.328531
-0.642249
-0.414789
0
0
-0.478739
-0.524945
-0.169061
0.0400331
-0.169061
-0.524945
-0.478739
0
0
-0.32714
-0.208881
0.138047
0.313205
0.138047
-0.208881
-0.32714
0
9.19146e-17
-0.0856619
0.136097
0.437652
0.571786
0.437652
0.136097
-0.0856619
9.19146e-17
0
0.110137
0.357116
0.589761
0.6831
0.589761
0.357116
0.110137
0
0
0.182611
0.38405
0.536833
0.593432
0.536833
0.38405
0.182611
0
-2.49078e-16
0.136504
0.251621
0.328086
0.354843
0.328086
0.251621
0.136504
-2.49078e-16
0
0.0447198
0.0779836
0.0984764
0.105397
0.0984764
0.0779836
0.0447198
0
0
0
0
0
0
0
0
0
0
0
-0.581697
-0.940182
-0.456199
-0.110732
-0.456199
-0.940182
-0.581697
0
0
-0.681266
-0.769351
-0.238295
0.0784905
-0.238295
-0.769351
-0.681266
0
0
-0.475369
-0.315636
0.196237
0.457832
0.196237
-0.315636
-0.475369
0
1.30986e-16
-0.131848
0.184584
0.6272
0.825716
0.6272
0.184584
-0.131848
1.30986e-16
0
0.151572
0.507244
0.847025
0.98409
0.847025
0.507244
0.151572
0
0
0.25796
0.547427
0.76882
0.851133
0.76882
0.547427
0.25796
0
-3.49246e-16
0.192542
0.356306
0.465617
0.503953
0.465617
0.356306
0.192542
-3.49246e-16
0
0.0621284
0.10848
0.13709
0.146761
0.13709
0.10848
0.0621284
0
0
0
0
0
0
0
0
0
0
0
-0.399287
-0.712035
-0.318967
-0.0319839
-0.318967
-0.712035
-0.399287
0
0
-0.475095
-0.57462
-0.166972
0.0839475
-0.166972
-0.57462
-0.475095
0
0
-0.344056
-0.24599
0.139659
0.341605
0.139659
-0.24599
-0.344056
0
8.96201e-17
-0.103959
0.119664
0.450438
0.601208
0.450438
0.119664
-0.103959
8.96201e-17
0
0.100751
0.357275
0.609002
0.711612
0.609002
0.357275
0.100751
0
0
0.179022
0.386711
0.548176
0.608632
0.548176
0.386711
0.179022
0
-2.37449e-16
0.132588
0.247407
0.324834
0.352115
0.324834
0.247407
0.132588
-2.37449e-16
0
0.0411805
0.0721182
0.0912986
0.0977959
0.0912986
0.0721182
0.0411805
0
0
0
0
0
0
0
0
0
0
0
-7.94266e-19
-1.3616e-18
-1.702e-18
-1.81547e-18
-1.702e-18
-1.3616e-18
-7.94266e-19
0
0
-2.04452e-19
-3.5049e-19
-4.38112e-19
-4.6732e-19
-4.38112e-19
-3.5049e-19
-2.04452e-19
0
0
1.46355e-19
2.50894e-19
3.13618e-19
3.34526e-19
3.13618e-19
2.50894e-19
1.46355e-19
0
-1.24886e-34
3.07583e-19
5.27286e-19
6.59107e-19
7.03047e-19
6.59107e-19
5.27286e-19
3.07583e-19
-1.24886e-34
0
3.2866e-19
5.63417e-19
7.04271e-19
7.51223e-19
7.04271e-19
5.63417e-19
3.2866e-19
0
0
2.59012e-19
4.44021e-19
5.55027e-19
5.92028e-19
5.55027e-19
4.44021e-19
2.59012e-19
0
-3.00597e-34
1.48068e-19
2.53831e-19
3.17289e-19
3.38442e-19
3.17289e-19
2.53831e-19
1.48068e-19
-3.00597e-34
0
4.5255e-20
7.758e-20
9.6975e-20
1.0344e-19
9.6975e-20
7.758e-20
4.5255e-20
0
0
0
0
0
0
0
0
0
0
0
7.94266e-19
1.3616e-18
1.702e-18
1.81547e-18
1.702e-18
1.3616e-18
7.94266e-19
0
0
2.04452e-19
3.5049e-19
4.38112e-19
4.6732e-19
4.38112e-19
3.5049e-19
2.04452e-19
0
0
-1.46355e-19
-2.50894e-19
-3.13618e-19
-3.34526e-19
-3.13618e-19
-2.50894e-19
-1.46355e-19
0
1.24886e-34
-3.07583e-19
-5.27286e-19
-6.59107e-19
-7.03047e-19
-6.59107e-19
-5.27286e-19
-3.07583e-19
1.24886e-34
0
-3.2866e-19
-5.63417e-19
-7.04271e-19
-7.51223e-19
-7.04271e-19
-5.63417e-19
-3.2866e-19
0
0
-2.59012e-19
-4.44021e-19
-5.55027e-19
-5.92028e-19
-5.55027e-19
-4.44021e-19
-2.59012e-19
0
3.00597e-34
-1.48068e-19
-2.53831e-19
-3.17289e-19
-3.38442e-19
-3.17289e-19
-2.53831e-19
-1.48068e-19
3.00597e-34
0
-4.5255e-20
-7.758e-20
-9.6975e-20
-1.0344e-19
-9.6975e-20
-7.758e-20
-4.5255e-20
0
0
0
0
0
0
0
0
0
0
0
0.399287
0.712035
0.318967
0.0319839
0.318967
0.712035
0.399287
0
0
0.475095
0.57462
0.166972
-0.0839475
0.166972
0.57462
0.475095
0
0
0.344056
0.24599
-0.139659
-0.341605
-0.139659
0.24599
0.344056
0
-8.96201e-17
0.103959
-0.119664
-0.450438
-0.601208
-0.450438
-0.119664
0.103959
-8.96201e-17
0
-0.100751
-0.357275
-0.609002
-0.711612
-0.609002
-0.357275
-0.100751
0
0
-0.179022
-0.386711
-0.548176
-0.608632
-0.548176
-0.386711
-0.179022
0
2.37449e-16
-0.132588
-0.247407
-0.324834
-0.352115
-0.324834
-0.247407
-0.132588
2.37449e-16
0
-0.0411805
-0.0721182
-0.0912986
-0.0977959
-0.0912986
-0.0721182
-0.0411805
0
0
0
0
0
0
0
0
0
0
0
0.581697
0.940182
0.456199
0.110732
0.456199
0.940182
0.581697
0
0
0.681266
0.769351
0.238295
-0.0784905
0.238295
0.769351
0.681266
0
0
0.475369
0.315636
-0.196237
-0.457832
-0.196237
0.315636
0.475369
0
-1.30986e-16
0.131848
-0.184584
-0.6272
-0.825716
-0.6272
-0.184584
0.131848
-1.30986e-16
0
-0.151572
-0.507244
-0.847025
-0.98409
-0.847025
-0.507244
-0.151572
0
0
-0.25796
-0.547427
-0.76882
-0.851133
-0.76882
-0.547427
-0.25796
0
3.49246e-16
-0.192542
-0.356306
-0.465617
-0.503953
-0.465617
-0.356306
-0.192542
3.49246e-16
0
-0.0621284
-0.10848
-0.13709
-0.146761
-0.13709
-0.10848
-0.0621284
0
0
0
0
0
0
0
0
0
0
0
0.414789
0.642249
0.328531
0.106658
0.328531
0.642249
0.414789
0
0
0.478739
0.524945
0.169061
-0.0400331
0.169061
0.524945
0.478739
0
0
0.32714
0.208881
-0.138047
-0.313205
-0.138047
0.208881
0.32714
0
-9.19146e-17
0.0856619
-0.136097
-0.437652
-0.571786
-0.437652
-0.136097
0.0856619
-9.19146e-17
0
-0.110137
-0.357116
-0.589761
-0.6831
-0.589761
-0.357116
-0.110137
0
0
-0.182611
-0.38405
-0.536833
-0.593432
-0.536833
-0.38405
-0.182611
0
2.49078e-16
-0.136504
-0.251621
-0.328086
-0.354843
-0.328086
-0.251621
-0.136504
2.49078e-16
0
-0.0447198
-0.0779836
-0.0984764
-0.105397
-0.0984764
-0.0779836
-0.0447198
0
0
0
0
0
0
0
0
0
0
0
1.2003e-16
1.59311e-16
-6.29222e-18
-4.40983e-17
1.29415e-16
1.57938e-16
5.05739e-17
0
0
2.01258e-16
1.74682e-16
-4.66587e-17
-1.74867e-16
-3.6763e-17
1.72013e-16
1.71857e-16
0
0
-7.97598e-17
-1.97778e-16
-4.17971e-17
5.98143e-17
-4.87996e-17
-1.81147e-16
-5.8096e-17
0
-1.00755e-31
-2.19603e-16
-2.79044e-16
5.231e-17
2.67513e-16
8.43955e-17
-2.53683e-16
-2.53974e-16
-1.80425e-32
0
7.49753e-17
-7.78779e-17
-4.60386e-17
3.11572e-17
1.34158e-17
-3.64726e-17
2.69857e-17
0
0
2.36163e-16
-3.35216e-17
-2.80588e-16
-3.28065e-16
-1.69562e-16
1.08993e-16
3.08591e-16
0
-6.8327e-31
9.86773e-17
-8.76556e-17
-2.64679e-16
-2.87894e-16
-1.34552e-16
1.10939e-16
2.58358e-16
-1.06167e-30
0
1.96881e-17
7.28749e-18
-2.40132e-19
1.44916e-17
5.01798e-17
8.7424e-17
8.90262e-17
0
0
0
0
0
0
0
0
0
0
0
-0.414789
-0.642249
-0.328531
-0.106658
-0.328531
-0.642249
-0.414789
0
0
-0.478739
-0.524945
-0.169061
0.0400331
-0.169061
-0.524945
-0.478739
0
0
-0.32714
-0.208881
0.138047
0.313205
0.138047
-0.208881
-0.32714
0
9.19146e-17
-0.0856619
0.136097
0.437652
0.571786
0.437652
0.136097
-0.0856619
9.19146e-17
0
0.110137
0.357116
0.589761
0.6831
0.589761
0.357116
0.110137
0
0
0.182611
0.38405
0.536833
0.593432
0.536833
0.38405
0.182611
0
-2.49078e-16
0.136504
0.251621
0.328086
0.354843
0.328086
0.251621
0.136504
-2.49078e-16
0
0.0447198
0.0779836
0.0984764
0.105397
0.0984764
0.0779836
0.0447198
0
0
0
0
0
0
0
0
0
0
0
-0.581697
-0.940182
-0.456199
-0.110732
-0.456199
-0.940182
-0.581697
0
0
-0.681266
-0.769351
-0.238295
0.0784905
-0.238295
-0.769351
-0.681266
0
0
-0.475369
-0.315636
0.196237
0.457832
0.196237
-0.315636
-0.475369
0
1.30986e-16
-0.131848
0.184584
0.6272
0.825716
0.6272
0.184584
-0.131848
1.30986e-16
0
0.151572
0.507244
0.847025
0.98409
0.847025
0.507244
0.151572
0
0
0.25796
0.547427
0.76882
0.851133
0.76882
0.547427
0.25796
0
-3.49246e-16
0.192542
0.356306
0.465617
0.503953
0.465617
0.356306
0.192542
-3.49246e-16
0
0.0621284
0.10848
0.13709
0.146761
0.13709
0.10848
0.0621284
0
0
0
0
0
0
0
0
0
0
0
-0.399287
-0.712035
-0.318967
-0.0319839
-0.318967
-0.712035
-0.399287
0
0
-0.475095
-0.57462
-0.166972
0.0839475
-0.166972
-0.57462
-0.475095
0
0
-0.344056
-0.24599
0.139659
0.341605
0.139659
-0.24599
-0.344056
0
8.96201e-17
-0.103959
0.119664
0.450438
0.601208
0.450438
0.119664
-0.103959
8.96201e-17
0
0.100751
0.357275
0.609002
0.711612
0.609002
0.357275
0.100751
0
0
0.179022
0.386711
0.548176
0.608632
0.548176
0.386711
0.179022
0
-2.37449e-16
0.132588
0.247407
0.324834
0.352115
0.324834
0.247407
0.132588
-2.37449e-16
0
0.0411805
0.0721182
0.0912986
0.0977959
0.0912986
0.0721182
0.0411805
0
0
0
0
0
0
0
0
0
0
0
-7.94266e-19
-1.3616e-18
-1.702e-18
-1.81547e-18
-1.702e-18
-1.3616e-18
-7.94266e-19
0
0
-2.04452e-19
-3.5049e-19
-4.38112e-19
-4.6732e-19
-4.38112e-19
-3.5049e-19
-2.04452e-19
0
0
1.46355e-19
2.50894e-19
3.13618e-19
3.34526e-19
3.13618e-19
2.50894e-19
1.46355e-19
0
-1.24886e-34
3.07583e-19
5.27286e-19
6.59107e-19
7.03047e-19
6.59107e-19
5.27286e-19
3.07583e-19
-1.24886e-34
0
3.2866e-19
5.63417e-19
7.04271e-19
7.51223e-19
7.04271e-19
5.63417e-19
3.2866e-19
0
0
2.59012e-19
4.44021e-19
5.55027e-19
5.92028e-19
5.55027e-19
4.44021e-19
2.59012e-19
0
-3.00597e-34
1.48068e-19
2.53831e-19
3.17289e-19
3.38442e-19
3.17289e-19
2.53831e-19
1.48068e-19
-3.00597e-34
0
4.5255e-20
7.758e-20
9.6975e-20
1.0344e-19
9.6975e-20
7.758e-20
4.5255e-20
0
0
0
0
0
0
0
0
0
0

