# vtk DataFile Version 3.0
AMR mesh
ASCII
DATASET UNSTRUCTURED_GRID
POINTS 250 double
1 0 1
0.75 0 0.75
0.5 0 0.5
0.25 0 0.25
0 0 0
0.75 0 1
0.5625 0 0.8125
0.375 0 0.625
0.1875 0 0.4375
0 0 0.25
0.5 0 1
0.375 0 0.875
0.25 0 0.75
0.125 0 0.625
0 0 0.5
0.25 0 1
0.1875 0 0.9375
0.125 0 0.875
0.0625 0 0.8125
0 0 0.75
0 0 1
0 0 1
0 0 1
0 0 1
0 0 1
1 0.25 1
0.75 0.25 0.75
0.5 0.25 0.5
0.25 0.25 0.25
0 0.25 0
0.75 0.25 1
0.5625 0.25 0.8125
0.375 0.25 0.625
0.1875 0.25 0.4375
0 0.25 0.25
0.5 0.25 1
0.375 0.25 0.875
0.25 0.25 0.75
0.125 0.25 0.625
0 0.25 0.5
0.25 0.25 1
0.1875 0.25 0.9375
0.125 0.25 0.875
0.0625 0.25 0.8125
0 0.25 0.75
0 0.25 1
0 0.25 1
0 0.25 1
0 0.25 1
0 0.25 1
1 0.5 1
0.75 0.5 0.75
0.5 0.5 0.5
0.25 0.5 0.25
0 0.5 0
0.75 0.5 1
0.5625 0.5 0.8125
0.375 0.5 0.625
0.1875 0.5 0.4375
0 0.5 0.25
0.5 0.5 1
0.375 0.5 0.875
0.25 0.5 0.75
0.125 0.5 0.625
0 0.5 0.5
0.25 0.5 1
0.1875 0.5 0.9375
0.125 0.5 0.875
0.0625 0.5 0.8125
0 0.5 0.75
0 0.5 1
0 0.5 1
0 0.5 1
0 0.5 1
0 0.5 1
1 0.75 1
0.75 0.75 0.75
0.5 0.75 0.5
0.25 0.75 0.25
0 0.75 0
0.75 0.75 1
0.5625 0.75 0.8125
0.375 0.75 0.625
0.1875 0.75 0.4375
0 0.75 0.25
0.5 0.75 1
0.375 0.75 0.875
0.25 0.75 0.75
0.125 0.75 0.625
0 0.75 0.5
0.25 0.75 1
0.1875 0.75 0.9375
0.125 0.75 0.875
0.0625 0.75 0.8125
0 0.75 0.75
0 0.75 1
0 0.75 1
0 0.75 1
0 0.75 1
0 0.75 1
1 1 1
0.75 1 0.75
0.5 1 0.5
0.25 1 0.25
0 1 0
0.75 1 1
0.5625 1 0.8125
0.375 1 0.625
0.1875 1 0.4375
0 1 0.25
0.5 1 1
0.375 1 0.875
0.25 1 0.75
0.125 1 0.625
0 1 0.5
0.25 1 1
0.1875 1 0.9375
0.125 1 0.875
0.0625 1 0.8125
0 1 0.75
0 1 1
0 1 1
0 1 1
0 1 1
0 1 1
0 0 0
0.25 0 0.25
0.5 0 0.5
0.75 0 0.75
1 0 1
0.25 0 0
0.4375 0 0.1875
0.625 0 0.375
0.8125 0 0.5625
1 0 0.75
0.5 0 0
0.625 0 0.125
0.75 0 0.25
0.875 0 0.375
1 0 0.5
0.75 0 0
0.8125 0 0.0625
0.875 0 0.125
0.9375 0 0.1875
1 0 0.25
1 0 0
1 0 0
1 0 0
1 0 0
1 0 0
0 0.25 0
0.25 0.25 0.25
0.5 0.25 0.5
0.75 0.25 0.75
1 0.25 1
0.25 0.25 0
0.4375 0.25 0.1875
0.625 0.25 0.375
0.8125 0.25 0.5625
1 0.25 0.75
0.5 0.25 0
0.625 0.25 0.125
0.75 0.25 0.25
0.875 0.25 0.375
1 0.25 0.5
0.75 0.25 0
0.8125 0.25 0.0625
0.875 0.25 0.125
0.9375 0.25 0.1875
1 0.25 0.25
1 0.25 0
1 0.25 0
1 0.25 0
1 0.25 0
1 0.25 0
0 0.5 0
0.25 0.5 0.25
0.5 0.5 0.5
0.75 0.5 0.75
1 0.5 1
0.25 0.5 0
0.4375 0.5 0.1875
0.625 0.5 0.375
0.8125 0.5 0.5625
1 0.5 0.75
0.5 0.5 0
0.625 0.5 0.125
0.75 0.5 0.25
0.875 0.5 0.375
1 0.5 0.5
0.75 0.5 0
0.8125 0.5 0.0625
0.875 0.5 0.125
0.9375 0.5 0.1875
1 0.5 0.25
1 0.5 0
1 0.5 0
1 0.5 0
1 0.5 0
1 0.5 0
0 0.75 0
0.25 0.75 0.25
0.5 0.75 0.5
0.75 0.75 0.75
1 0.75 1
0.25 0.75 0
0.4375 0.75 0.1875
0.625 0.75 0.375
0.8125 0.75 0.5625
1 0.75 0.75
0.5 0.75 0
0.625 0.75 0.125
0.75 0.75 0.25
0.875 0.75 0.375
1 0.75 0.5
0.75 0.75 0
0.8125 0.75 0.0625
0.875 0.75 0.125
0.9375 0.75 0.1875
1 0.75 0.25
1 0.75 0
1 0.75 0
1 0.75 0
1 0.75 0
1 0.75 0
0 1 0
0.25 1 0.25
0.5 1 0.5
0.75 1 0.75
1 1 1
0.25 1 0
0.4375 1 0.1875
0.625 1 0.375
0.8125 1 0.5625
1 1 0.75
0.5 1 0
0.625 1 0.125
0.75 1 0.25
0.875 1 0.375
1 1 0.5
0.75 1 0
0.8125 1 0.0625
0.875 1 0.125
0.9375 1 0.1875
1 1 0.25
1 1 0
1 1 0
1 1 0
1 1 0
1 1 0

CELLS 128 1152
8 0 1 6 5 25 26 31 30 
8 1 2 7 6 26 27 32 31 
8 2 3 8 7 27 28 33 32 
8 3 4 9 8 28 29 34 33 
8 5 6 11 10 30 31 36 35 
8 6 7 12 11 31 32 37 36 
8 7 8 13 12 32 33 38 37 
8 8 9 14 13 33 34 39 38 
8 10 11 16 15 35 36 41 40 
8 11 12 17 16 36 37 42 41 
8 12 13 18 17 37 38 43 42 
8 13 14 19 18 38 39 44 43 
8 15 16 21 20 40 41 46 45 
8 16 17 22 21 41 42 47 46 
8 17 18 23 22 42 43 48 47 
8 18 19 24 23 43 44 49 48 
8 25 26 31 30 50 51 56 55 
8 26 27 32 31 51 52 57 56 
8 27 28 33 32 52 53 58 57 
8 28 29 34 33 53 54 59 58 
8 30 31 36 35 55 56 61 60 
8 31 32 37 36 56 57 62 61 
8 32 33 38 37 57 58 63 62 
8 33 34 39 38 58 59 64 63 
8 35 36 41 40 60 61 66 65 
8 36 37 42 41 61 62 67 66 
8 37 38 43 42 62 63 68 67 
8 38 39 44 43 63 64 69 68 
8 40 41 46 45 65 66 71 70 
8 41 42 47 46 66 67 72 71 
8 42 43 48 47 67 68 73 72 
8 43 44 49 48 68 69 74 73 
8 50 51 56 55 75 76 81 80 
8 51 52 57 56 76 77 82 81 
8 52 53 58 57 77 78 83 82 
8 53 54 59 58 78 79 84 83 
8 55 56 61 60 80 81 86 85 
8 56 57 62 61 81 82 87 86 
8 57 58 63 62 82 83 88 87 
8 58 59 64 63 83 84 89 88 
8 60 61 66 65 85 86 91 90 
8 61 62 67 66 86 87 92 91 
8 62 63 68 67 87 88 93 92 
8 63 64 69 68 88 89 94 93 
8 65 66 71 70 90 91 96 95 
8 66 67 72 71 91 92 97 96 
8 67 68 73 72 92 93 98 97 
8 68 69 74 73 93 94 99 98 
8 75 76 81 80 100 101 106 105 
8 76 77 82 81 101 102 107 106 
8 77 78 83 82 102 103 108 107 
8 78 79 84 83 103 104 109 108 
8 80 81 86 85 105 106 111 110 
8 81 82 87 86 106 107 112 111 
8 82 83 88 87 107 108 113 112 
8 83 84 89 88 108 109 114 113 
8 85 86 91 90 110 111 116 115 
8 86 87 92 91 111 112 117 116 
8 87 88 93 92 112 113 118 117 
8 88 89 94 93 113 114 119 118 
8 90 91 96 95 115 116 121 120 
8 91 92 97 96 116 117 122 121 
8 92 93 98 97 117 118 123 122 
8 93 94 99 98 118 119 124 123 
8 125 126 131 130 150 151 156 155 
8 126 127 132 131 151 152 157 156 
8 127 128 133 132 152 153 158 157 
8 128 129 134 133 153 154 159 158 
8 130 131 136 135 155 156 161 160 
8 131 132 137 136 156 157 162 161 
8 132 133 138 137 157 158 163 162 
8 133 134 139 138 158 159 164 163 
8 135 136 141 140 160 161 166 165 
8 136 137 142 141 161 162 167 166 
8 137 138 143 142 162 163 168 167 
8 138 139 144 143 163 164 169 168 
8 140 141 146 145 165 166 171 170 
8 141 142 147 146 166 167 172 171 
8 142 143 148 147 167 168 173 172 
8 143 144 149 148 168 169 174 173 
8 150 151 156 155 175 176 181 180 
8 151 152 157 156 176 177 182 181 
8 152 153 158 157 177 178 183 182 
8 153 154 159 158 178 179 184 183 
8 155 156 161 160 180 181 186 185 
8 156 157 162 161 181 182 187 186 
8 157 158 163 162 182 183 188 187 
8 158 159 164 163 183 184 189 188 
8 160 161 166 165 185 186 191 190 
8 161 162 167 166 186 187 192 191 
8 162 163 168 167 187 188 193 192 
8 163 164 169 168 188 189 194 193 
8 165 166 171 170 190 191 196 195 
8 166 167 172 171 191 192 197 196 
8 167 168 173 172 192 193 198 197 
8 168 169 174 173 193 194 199 198 
8 175 176 181 180 200 201 206 205 
8 176 177 182 181 201 202 207 206 
8 177 178 183 182 202 203 208 207 
8 178 179 184 183 203 204 209 208 
8 180 181 186 185 205 206 211 210 
8 181 182 187 186 206 207 212 211 
8 182 183 188 187 207 208 213 212 
8 183 184 189 188 208 209 214 213 
8 185 186 191 190 210 211 216 215 
8 186 187 192 191 211 212 217 216 
8 187 188 193 192 212 213 218 217 
8 188 189 194 193 213 214 219 218 
8 190 191 196 195 215 216 221 220 
8 191 192 197 196 216 217 222 221 
8 192 193 198 197 217 218 223 222 
8 193 194 199 198 218 219 224 223 
8 200 201 206 205 225 226 231 230 
8 201 202 207 206 226 227 232 231 
8 202 203 208 207 227 228 233 232 
8 203 204 209 208 228 229 234 233 
8 205 206 211 210 230 231 236 235 
8 206 207 212 211 231 232 237 236 
8 207 208 213 212 232 233 238 237 
8 208 209 214 213 233 234 239 238 
8 210 211 216 215 235 236 241 240 
8 211 212 217 216 236 237 242 241 
8 212 213 218 217 237 238 243 242 
8 213 214 219 218 238 239 244 243 
8 215 216 221 220 240 241 246 245 
8 216 217 222 221 241 242 247 246 
8 217 218 223 222 242 243 248 247 
8 218 219 224 223 243 244 249 248 
CELL_TYPES 128
12
12
12
12
12
12
12
12
12
12
12
12
12
12
12
12
12
12
12
12
12
12
12
12
12
12
12
12
12
12
12
12
12
12
12
12
12
12
12
12
12
12
12
12
12
12
12
12
12
12
12
12
12
12
12
12
12
12
12
12
12
12
12
12
12
12
12
12
12
12
12
12
12
12
12
12
12
12
12
12
12
12
12
12
12
12
12
12
12
12
12
12
12
12
12
12
12
12
12
12
12
12
12
12
12
12
12
12
12
12
12
12
12
12
12
12
12
12
12
12
12
12
12
12
12
12
12
12

POINT_DATA 250
SCALARS SolU double 1
LOOKUP_TABLE default
0
1.3616e-18
1.81547e-18
1.3616e-18
0
0
-2.50894e-19
-3.34526e-19
-2.50894e-19
0
0
-5.63417e-19
-7.51223e-19
-5.63417e-19
0
3.00597e-34
-2.53831e-19
-3.38442e-19
-2.53831e-19
3.00597e-34
0
0
0
0
0
0
0.940182
0.110732
0.940182
0
0
0.315636
-0.457832
0.315636
0
0
-0.507244
-0.98409
-0.507244
0
3.49246e-16
-0.356306
-0.503953
-0.356306
3.49246e-16
0
0
0
0
0
0
1.57938e-16
-4.40983e-17
1.59311e-16
0
0
-2.15985e-16
1.0692e-16
-2.2203e-16
0
0
-1.13774e-16
3.56351e-17
-2.04051e-16
0
-6.1425e-31
4.23741e-18
-3.0105e-16
-1.25127e-16
-5.83959e-31
0
0
0
0
0
0
-0.940182
-0.110732
-0.940182
0
0
-0.315636
0.457832
-0.315636
0
0
0.507244
0.98409
0.507244
0
-3.49246e-16
0.356306
0.503953
0.356306
-3.49246e-16
0
0
0
0
0
0
-1.3616e-18
-1.81547e-18
-1.3616e-18
0
0
2.50894e-19
3.34526e-19
2.50894e-19
0
0
5.63417e-19
7.51223e-19
5.63417e-19
0
-3.00597e-34
2.53831e-19
3.38442e-19
2.53831e-19
-3.00597e-34
0
0
0
0
0
0
1.3616e-18
1.81547e-18
1.3616e-18
0
0
-2.50894e-19
-3.34526e-19
-2.50894e-19
0
0
-5.63417e-19
-7.51223e-19
-5.63417e-19
0
3.00597e-34
-2.53831e-19
-3.38442e-19
-2.53831e-19
3.00597e-34
0
0
0
0
0
0
0.940182
0.110732
0.940182
0
0
0.315636
-0.457832
0.315636
0
0
-0.507244
-0.98409
-0.507244
0
3.49246e-16
-0.356306
-0.503953
-0.356306
3.49246e-16
0
0
0
0
0
0
1.59311e-16
-4.40983e-17
1.57938e-16
0
0
-1.97778e-16
5.98143e-17
-1.81147e-16
0
0
-7.78779e-17
3.11572e-17
-3.64726e-17
0
-6.8327e-31
-8.76556e-17
-2.87894e-16
1.10939e-16
-1.06167e-30
0
0
0
0
0
0
-0.940182
-0.110732
-0.940182
0
0
-0.315636
0.457832
-0.315636
0
0
0.507244
0.98409
0.507244
0
-3.49246e-16
0.356306
0.503953
0.356306
-3.49246e-16
0
0
0
0
0
0
-1.3616e-18
-1.81547e-18
-1.3616e-18
0
0
2.50894e-19
3.34526e-19
2.50894e-19
0
0
5.63417e-19
7.51223e-19
5.63417e-19
0
-3.00597e-34
2.53831e-19
3.38442e-19
2.53831e-19
-3.00597e-34
0
0
0
0
0

