# vtk DataFile Version 3.0
AMR mesh
ASCII
DATASET UNSTRUCTURED_GRID
POINTS 432 double
1 0 1
0.8 0 0.8
0.6 0 0.6
0.4 0 0.4
0.2 0 0.2
0 0 0
0.8 0 1
0.64 0 0.84
0.48 0 0.68
0.32 0 0.52
0.16 0 0.36
0 0 0.2
0.6 0 1
0.48 0 0.88
0.36 0 0.76
0.24 0 0.64
0.12 0 0.52
0 0 0.4
0.4 0 1
0.32 0 0.92
0.24 0 0.84
0.16 0 0.76
0.08 0 0.68
0 0 0.6
0.2 0 1
0.16 0 0.96
0.12 0 0.92
0.08 0 0.88
0.04 0 0.84
0 0 0.8
0 0 1
0 0 1
0 0 1
0 0 1
0 0 1
0 0 1
1 0.2 1
0.8 0.2 0.8
0.6 0.2 0.6
0.4 0.2 0.4
0.2 0.2 0.2
0 0.2 0
0.8 0.2 1
0.64 0.2 0.84
0.48 0.2 0.68
0.32 0.2 0.52
0.16 0.2 0.36
0 0.2 0.2
0.6 0.2 1
0.48 0.2 0.88
0.36 0.2 0.76
0.24 0.2 0.64
0.12 0.2 0.52
0 0.2 0.4
0.4 0.2 1
0.32 0.2 0.92
0.24 0.2 0.84
0.16 0.2 0.76
0.08 0.2 0.68
0 0.2 0.6
0.2 0.2 1
0.16 0.2 0.96
0.12 0.2 0.92
0.08 0.2 0.88
0.04 0.2 0.84
0 0.2 0.8
0 0.2 1
0 0.2 1
0 0.2 1
0 0.2 1
0 0.2 1
0 0.2 1
1 0.4 1
0.8 0.4 0.8
0.6 0.4 0.6
0.4 0.4 0.4
0.2 0.4 0.2
0 0.4 0
0.8 0.4 1
0.64 0.4 0.84
0.48 0.4 0.68
0.32 0.4 0.52
0.16 0.4 0.36
0 0.4 0.2
0.6 0.4 1
0.48 0.4 0.88
0.36 0.4 0.76
0.24 0.4 0.64
0.12 0.4 0.52
0 0.4 0.4
0.4 0.4 1
0.32 0.4 0.92
0.24 0.4 0.84
0.16 0.4 0.76
0.08 0.4 0.68
0 0.4 0.6
0.2 0.4 1
0.16 0.4 0.96
0.12 0.4 0.92
0.08 0.4 0.88
0.04 0.4 0.84
0 0.4 0.8
0 0.4 1
0 0.4 1
0 0.4 1
0 0.4 1
0 0.4 1
0 0.4 1
1 0.6 1
0.8 0.6 0.8
0.6 0.6 0.6
0.4 0.6 0.4
0.2 0.6 0.2
0 0.6 0
0.8 0.6 1
0.64 0.6 0.84
0.48 0.6 0.68
0.32 0.6 0.52
0.16 0.6 0.36
0 0.6 0.2
0.6 0.6 1
0.48 0.6 0.88
0.36 0.6 0.76
0.24 0.6 0.64
0.12 0.6 0.52
0 0.6 0.4
0.4 0.6 1
0.32 0.6 0.92
0.24 0.6 0.84
0.16 0.6 0.76
0.08 0.6 0.68
0 0.6 0.6
0.2 0.6 1
0.16 0.6 0.96
0.12 0.6 0.92
0.08 0.6 0.88
0.04 0.6 0.84
0 0.6 0.8
0 0.6 1
0 0.6 1
0 0.6 1
0 0.6 1
0 0.6 1
0 0.6 1
1 0.8 1
0.8 0.8 0.8
0.6 0.8 0.6
0.4 0.8 0.4
0.2 0.8 0.2
0 0.8 0
0.8 0.8 1
0.64 0.8 0.84
0.48 0.8 0.68
0.32 0.8 0.52
0.16 0.8 0.36
0 0.8 0.2
0.6 0.8 1
0.48 0.8 0.88
0.36 0.8 0.76
0.24 0.8 0.64
0.12 0.8 0.52
0 0.8 0.4
0.4 0.8 1
0.32 0.8 0.92
0.24 0.8 0.84
0.16 0.8 0.76
0.08 0.8 0.68
0 0.8 0.6
0.2 0.8 1
0.16 0.8 0.96
0.12 0.8 0.92
0.08 0.8 0.88
0.04 0.8 0.84
0 0.8 0.8
0 0.8 1
0 0.8 1
0 0.8 1
0 0.8 1
0 0.8 1
0 0.8 1
1 1 1
0.8 1 0.8
0.6 1 0.6
0.4 1 0.4
0.2 1 0.2
0 1 0
0.8 1 1
0.64 1 0.84
0.48 1 0.68
0.32 1 0.52
0.16 1 0.36
0 1 0.2
0.6 1 1
0.48 1 0.88
0.36 1 0.76
0.24 1 0.64
0.12 1 0.52
0 1 0.4
0.4 1 1
0.32 1 0.92
0.24 1 0.84
0.16 1 0.76
0.08 1 0.68
0 1 0.6
0.2 1 1
0.16 1 0.96
0.12 1 0.92
0.08 1 0.88
0.04 1 0.84
0 1 0.8
0 1 1
0 1 1
0 1 1
0 1 1
0 1 1
0 1 1
0 0 0
0.2 0 0.2
0.4 0 0.4
0.6 0 0.6
0.8 0 0.8
1 0 1
0.2 0 0
0.36 0 0.16
0.52 0 0.32
0.68 0 0.48
0.84 0 0.64
1 0 0.8
0.4 0 0
0.52 0 0.12
0.64 0 0.24
0.76 0 0.36
0.88 0 0.48
1 0 0.6
0.6 0 0
0.68 0 0.08
0.76 0 0.16
0.84 0 0.24
0.92 0 0.32
1 0 0.4
0.8 0 0
0.84 0 0.04
0.88 0 0.08
0.92 0 0.12
0.96 0 0.16
1 0 0.2
1 0 0
1 0 0
1 0 0
1 0 0
1 0 0
1 0 0
0 0.2 0
0.2 0.2 0.2
0.4 0.2 0.4
0.6 0.2 0.6
0.8 0.2 0.8
1 0.2 1
0.2 0.2 0
0.36 0.2 0.16
0.52 0.2 0.32
0.68 0.2 0.48
0.84 0.2 0.64
1 0.2 0.8
0.4 0.2 0
0.52 0.2 0.12
0.64 0.2 0.24
0.76 0.2 0.36
0.88 0.2 0.48
1 0.2 0.6
0.6 0.2 0
0.68 0.2 0.08
0.76 0.2 0.16
0.84 0.2 0.24
0.92 0.2 0.32
1 0.2 0.4
0.8 0.2 0
0.84 0.2 0.04
0.88 0.2 0.08
0.92 0.2 0.12
0.96 0.2 0.16
1 0.2 0.2
1 0.2 0
1 0.2 0
1 0.2 0
1 0.2 0
1 0.2 0
1 0.2 0
0 0.4 0
0.2 0.4 0.2
0.4 0.4 0.4
0.6 0.4 0.6
0.8 0.4 0.8
1 0.4 1
0.2 0.4 0
0.36 0.4 0.16
0.52 0.4 0.32
0.68 0.4 0.48
0.84 0.4 0.64
1 0.4 0.8
0.4 0.4 0
0.52 0.4 0.12
0.64 0.4 0.24
0.76 0.4 0.36
0.88 0.4 0.48
1 0.4 0.6
0.6 0.4 0
0.68 0.4 0.08
0.76 0.4 0.16
0.84 0.4 0.24
0.92 0.4 0.32
1 0.4 0.4
0.8 0.4 0
0.84 0.4 0.04
0.88 0.4 0.08
0.92 0.4 0.12
0.96 0.4 0.16
1 0.4 0.2
1 0.4 0
1 0.4 0
1 0.4 0
1 0.4 0
1 0.4 0
1 0.4 0
0 0.6 0
0.2 0.6 0.2
0.4 0.6 0.4
0.6 0.6 0.6
0.8 0.6 0.8
1 0.6 1
0.2 0.6 0
0.36 0.6 0.16
0.52 0.6 0.32
0.68 0.6 0.48
0.84 0.6 0.64
1 0.6 0.8
0.4 0.6 0
0.52 0.6 0.12
0.64 0.6 0.24
0.76 0.6 0.36
0.88 0.6 0.48
1 0.6 0.6
0.6 0.6 0
0.68 0.6 0.08
0.76 0.6 0.16
0.84 0.6 0.24
0.92 0.6 0.32
1 0.6 0.4
0.8 0.6 0
0.84 0.6 0.04
0.88 0.6 0.08
0.92 0.6 0.12
0.96 0.6 0.16
1 0.6 0.2
1 0.6 0
1 0.6 0
1 0.6 0
1 0.6 0
1 0.6 0
1 0.6 0
0 0.8 0
0.2 0.8 0.2
0.4 0.8 0.4
0.6 0.8 0.6
0.8 0.8 0.8
1 0.8 1
0.2 0.8 0
0.36 0.8 0.16
0.52 0.8 0.32
0.68 0.8 0.48
0.84 0.8 0.64
1 0.8 0.8
0.4 0.8 0
0.52 0.8 0.12
0.64 0.8 0.24
0.76 0.8 0.36
0.88 0.8 0.48
1 0.8 0.6
0.6 0.8 0
0.68 0.8 0.08
0.76 0.8 0.16
0.84 0.8 0.24
0.92 0.8 0.32
1 0.8 0.4
0.8 0.8 0
0.84 0.8 0.04
0.88 0.8 0.08
0.92 0.8 0.12
0.96 0.8 0.16
1 0.8 0.2
1 0.8 0
1 0.8 0
1 0.8 0
1 0.8 0
1 0.8 0
1 0.8 0
0 1 0
0.2 1 0.2
0.4 1 0.4
0.6 1 0.6
0.8 1 0.8
1 1 1
0.2 1 0
0.36 1 0.16
0.52 1 0.32
0.68 1 0.48
0.84 1 0.64
1 1 0.8
0.4 1 0
0.52 1 0.12
0.64 1 0.24
0.76 1 0.36
0.88 1 0.48
1 1 0.6
0.6 1 0
0.68 1 0.08
0.76 1 0.16
0.84 1 0.24
0.92 1 0.32
1 1 0.4
0.8 1 0
0.84 1 0.04
0.88 1 0.08
0.92 1 0.12
0.96 1 0.16
1 1 0.2
1 1 0
1 1 0
1 1 0
1 1 0
1 1 0
1 1 0

CELLS 250 2250
8 0 1 7 6 36 37 43 42 
8 1 2 8 7 37 38 44 43 
8 2 3 9 8 38 39 45 44 
8 3 4 10 9 39 40 46 45 
8 4 5 11 10 40 41 47 46 
8 6 7 13 12 42 43 49 48 
8 7 8 14 13 43 44 50 49 
8 8 9 15 14 44 45 51 50 
8 9 10 16 15 45 46 52 51 
8 10 11 17 16 46 47 53 52 
8 12 13 19 18 48 49 55 54 
8 13 14 20 19 49 50 56 55 
8 14 15 21 20 50 51 57 56 
8 15 16 22 21 51 52 58 57 
8 16 17 23 22 52 53 59 58 
8 18 19 25 24 54 55 61 60 
8 19 20 26 25 55 56 62 61 
8 20 21 27 26 56 57 63 62 
8 21 22 28 27 57 58 64 63 
8 22 23 29 28 58 59 65 64 
8 24 25 31 30 60 61 67 66 
8 25 26 32 31 61 62 68 67 
8 26 27 33 32 62 63 69 68 
8 27 28 34 33 63 64 70 69 
8 28 29 35 34 64 65 71 70 
8 36 37 43 42 72 73 79 78 
8 37 38 44 43 73 74 80 79 
8 38 39 45 44 74 75 81 80 
8 39 40 46 45 75 76 82 81 
8 40 41 47 46 76 77 83 82 
8 42 43 49 48 78 79 85 84 
8 43 44 50 49 79 80 86 85 
8 44 45 51 50 80 81 87 86 
8 45 46 52 51 81 82 88 87 
8 46 47 53 52 82 83 89 88 
8 48 49 55 54 84 85 91 90 
8 49 50 56 55 85 86 92 91 
8 50 51 57 56 86 87 93 92 
8 51 52 58 57 87 88 94 93 
8 52 53 59 58 88 89 95 94 
8 54 55 61 60 90 91 97 96 
8 55 56 62 61 91 92 98 97 
8 56 57 63 62 92 93 99 98 
8 57 58 64 63 93 94 100 99 
8 58 59 65 64 94 95 101 100 
8 60 61 67 66 96 97 103 102 
8 61 62 68 67 97 98 104 103 
8 62 63 69 68 98 99 105 104 
8 63 64 70 69 99 100 106 105 
8 64 65 71 70 100 101 107 106 
8 72 73 79 78 108 109 115 114 
8 73 74 80 79 109 110 116 115 
8 74 75 81 80 110 111 117 116 
8 75 76 82 81 111 112 118 117 
8 76 77 83 82 112 113 119 118 
8 78 79 85 84 114 115 121 120 
8 79 80 86 85 115 116 122 121 
8 80 81 87 86 116 117 123 122 
8 81 82 88 87 117 118 124 123 
8 82 83 89 88 118 119 125 124 
8 84 85 91 90 120 121 127 126 
8 85 86 92 91 121 122 128 127 
8 86 87 93 92 122 123 129 128 
8 87 88 94 93 123 124 130 129 
8 88 89 95 94 124 125 131 130 
8 90 91 97 96 126 127 133 132 
8 91 92 98 97 127 128 134 133 
8 92 93 99 98 128 129 135 134 
8 93 94 100 99 129 130 136 135 
8 94 95 101 100 130 131 137 136 
8 96 97 103 102 132 133 139 138 
8 97 98 104 103 133 134 140 139 
8 98 99 105 104 134 135 141 140 
8 99 100 106 105 135 136 142 141 
8 100 101 107 106 136 137 143 142 
8 108 109 115 114 144 145 151 150 
8 109 110 116 115 145 146 152 151 
8 110 111 117 116 146 147 153 152 
8 111 112 118 117 147 148 154 153 
8 112 113 119 118 148 149 155 154 
8 114 115 121 120 150 151 157 156 
8 115 116 122 121 151 152 158 157 
8 116 117 123 122 152 153 159 158 
8 117 118 124 123 153 154 160 159 
8 118 119 125 124 154 155 161 160 
8 120 121 127 126 156 157 163 162 
8 121 122 128 127 157 158 164 163 
8 122 123 129 128 158 159 165 164 
8 123 124 130 129 159 160 166 165 
8 124 125 131 130 160 161 167 166 
8 126 127 133 132 162 163 169 168 
8 127 128 134 133 163 164 170 169 
8 128 129 135 134 164 165 171 170 
8 129 130 136 135 165 166 172 171 
8 130 131 137 136 166 167 173 172 
8 132 133 139 138 168 169 175 174 
8 133 134 140 139 169 170 176 175 
8 134 135 141 140 170 171 177 176 
8 135 136 142 141 171 172 178 177 
8 136 137 143 142 172 173 179 178 
8 144 145 151 150 180 181 187 186 
8 145 146 152 151 181 182 188 187 
8 146 147 153 152 182 183 189 188 
8 147 148 154 153 183 184 190 189 
8 148 149 155 154 184 185 191 190 
8 150 151 157 156 186 187 193 192 
8 151 152 158 157 187 188 194 193 
8 152 153 159 158 188 189 195 194 
8 153 154 160 159 189 190 196 195 
8 154 155 161 160 190 191 197 196 
8 156 157 163 162 192 193 199 198 
8 157 158 164 163 193 194 200 199 
8 158 159 165 164 194 195 201 200 
8 159 160 166 165 195 196 202 201 
8 160 161 167 166 196 197 203 202 
8 162 163 169 168 198 199 205 204 
8 163 164 170 169 199 200 206 205 
8 164 165 171 170 200 201 207 206 
8 165 166 172 171 201 202 208 207 
8 166 167 173 172 202 203 209 208 
8 168 169 175 174 204 205 211 210 
8 169 170 176 175 205 206 212 211 
8 170 171 177 176 206 207 213 212 
8 171 172 178 177 207 208 214 213 
8 172 173 179 178 208 209 215 214 
8 216 217 223 222 252 253 259 258 
8 217 218 224 223 253 254 260 259 
8 218 219 225 224 254 255 261 260 
8 219 220 226 225 255 256 262 261 
8 220 221 227 226 256 257 263 262 
8 222 223 229 228 258 259 265 264 
8 223 224 230 229 259 260 266 265 
8 224 225 231 230 260 261 267 266 
8 225 226 232 231 261 262 268 267 
8 226 227 233 232 262 263 269 268 
8 228 229 235 234 264 265 271 270 
8 229 230 236 235 265 266 272 271 
8 230 231 237 236 266 267 273 272 
8 231 232 238 237 267 268 274 273 
8 232 233 239 238 268 269 275 274 
8 234 235 241 240 270 271 277 276 
8 235 236 242 241 271 272 278 277 
8 236 237 243 242 272 273 279 278 
8 237 238 244 243 273 274 280 279 
8 238 239 245 244 274 275 281 280 
8 240 241 247 246 276 277 283 282 
8 241 242 248 247 277 278 284 283 
8 242 243 249 248 278 279 285 284 
8 243 244 250 249 279 280 286 285 
8 244 245 251 250 280 281 287 286 
8 252 253 259 258 288 289 295 294 
8 253 254 260 259 289 290 296 295 
8 254 255 261 260 290 291 297 296 
8 255 256 262 261 291 292 298 297 
8 256 257 263 262 292 293 299 298 
8 258 259 265 264 294 295 301 300 
8 259 260 266 265 295 296 302 301 
8 260 261 267 266 296 297 303 302 
8 261 262 268 267 297 298 304 303 
8 262 263 269 268 298 299 305 304 
8 264 265 271 270 300 301 307 306 
8 265 266 272 271 301 302 308 307 
8 266 267 273 272 302 303 309 308 
8 267 268 274 273 303 304 310 309 
8 268 269 275 274 304 305 311 310 
8 270 271 277 276 306 307 313 312 
8 271 272 278 277 307 308 314 313 
8 272 273 279 278 308 309 315 314 
8 273 274 280 279 309 310 316 315 
8 274 275 281 280 310 311 317 316 
8 276 277 283 282 312 313 319 318 
8 277 278 284 283 313 314 320 319 
8 278 279 285 284 314 315 321 320 
8 279 280 286 285 315 316 322 321 
8 280 281 287 286 316 317 323 322 
8 288 289 295 294 324 325 331 330 
8 289 290 296 295 325 326 332 331 
8 290 291 297 296 326 327 333 332 
8 291 292 298 297 327 328 334 333 
8 292 293 299 298 328 329 335 334 
8 294 295 301 300 330 331 337 336 
8 295 296 302 301 331 332 338 337 
8 296 297 303 302 332 333 339 338 
8 297 298 304 303 333 334 340 339 
8 298 299 305 304 334 335 341 340 
8 300 301 307 306 336 337 343 342 
8 301 302 308 307 337 338 344 343 
8 302 303 309 308 338 339 345 344 
8 303 304 310 309 339 340 346 345 
8 304 305 311 310 340 341 347 346 
8 306 307 313 312 342 343 349 348 
8 307 308 314 313 343 344 350 349 
8 308 309 315 314 344 345 351 350 
8 309 310 316 315 345 346 352 351 
8 310 311 317 316 346 347 353 352 
8 312 313 319 318 348 349 355 354 
8 313 314 320 319 349 350 356 355 
8 314 315 321 320 350 351 357 356 
8 315 316 322 321 351 352 358 357 
8 316 317 323 322 352 353 359 358 
8 324 325 331 330 360 361 367 366 
8 325 326 332 331 361 362 368 367 
8 326 327 333 332 362 363 369 368 
8 327 328 334 333 363 364 370 369 
8 328 329 335 334 364 365 371 370 
8 330 331 337 336 366 367 373 372 
8 331 332 338 337 367 368 374 373 
8 332 333 339 338 368 369 375 374 
8 333 334 340 339 369 370 376 375 
8 334 335 341 340 370 371 377 376 
8 336 337 343 342 372 373 379 378 
8 337 338 344 343 373 374 380 379 
8 338 339 345 344 374 375 381 380 
8 339 340 346 345 375 376 382 381 
8 340 341 347 346 376 377 383 382 
8 342 343 349 348 378 379 385 384 
8 343 344 350 349 379 380 386 385 
8 344 345 351 350 380 381 387 386 
8 345 346 352 351 381 382 388 387 
8 346 347 353 352 382 383 389 388 
8 348 349 355 354 384 385 391 390 
8 349 350 356 355 385 386 392 391 
8 350 351 357 356 386 387 393 392 
8 351 352 358 357 387 388 394 393 
8 352 353 359 358 388 389 395 394 
8 360 361 367 366 396 397 403 402 
8 361 362 368 367 397 398 404 403 
8 362 363 369 368 398 399 405 404 
8 363 364 370 369 399 400 406 405 
8 364 365 371 370 400 401 407 406 
8 366 367 373 372 402 403 409 408 
8 367 368 374 373 403 404 410 409 
8 368 369 375 374 404 405 411 410 
8 369 370 376 375 405 406 412 411 
8 370 371 377 376 406 407 413 412 
8 372 373 379 378 408 409 415 414 
8 373 374 380 379 409 410 416 415 
8 374 375 381 380 410 411 417 416 
8 375 376 382 381 411 412 418 417 
8 376 377 383 382 412 413 419 418 
8 378 379 385 384 414 415 421 420 
8 379 380 386 385 415 416 422 421 
8 380 381 387 386 416 417 423 422 
8 381 382 388 387 417 418 424 423 
8 382 383 389 388 418 419 425 424 
8 384 385 391 390 420 421 427 426 
8 385 386 392 391 421 422 428 427 
8 386 387 393 392 422 423 429 428 
8 387 388 394 393 423 424 430 429 
8 388 389 395 394 424 425 431 430 
CELL_TYPES 250
12
12
12
12
12
12
12
12
12
12
12
12
12
12
12
12
12
12
12
12
12
12
12
12
12
12
12
12
12
12
12
12
12
12
12
12
12
12
12
12
12
12
12
12
12
12
12
12
12
12
12
12
12
12
12
12
12
12
12
12
12
12
12
12
12
12
12
12
12
12
12
12
12
12
12
12
12
12
12
12
12
12
12
12
12
12
12
12
12
12
12
12
12
12
12
12
12
12
12
12
12
12
12
12
12
12
12
12
12
12
12
12
12
12
12
12
12
12
12
12
12
12
12
12
12
12
12
12
12
12
12
12
12
12
12
12
12
12
12
12
12
12
12
12
12
12
12
12
12
12
12
12
12
12
12
12
12
12
12
12
12
12
12
12
12
12
12
12
12
12
12
12
12
12
12
12
12
12
12
12
12
12
12
12
12
12
12
12
12
12
12
12
12
12
12
12
12
12
12
12
12
12
12
12
12
12
12
12
12
12
12
12
12
12
12
12
12
12
12
12
12
12
12
12
12
12
12
12
12
12
12
12
12
12
12
12
12
12
12
12
12
12
12
12
12
12
12
12
12
12

POINT_DATA 432
SCALARS SolU double 1
LOOKUP_TABLE default
0
1.1619e-18
1.74285e-18
1.74285e-18
1.1619e-18
0
1.00077e-35
-4.61524e-20
-6.92286e-20
-6.92286e-20
-4.61524e-20
1.00077e-35
0
-4.70205e-19
-7.05307e-19
-7.05307e-19
-4.70205e-19
2.71892e-34
0
-4.06422e-19
-6.09633e-19
-6.09633e-19
-4.06422e-19
0
0
-1.50966e-19
-2.26449e-19
-2.26449e-19
-1.50966e-19
0
0
0
0
0
0
0
0
0.900536
0.31765
0.31765
0.900536
0
-1.42165e-16
0.616214
-0.102869
-0.102869
0.616214
-1.42165e-16
0
-0.0930096
-0.726209
-0.726209
-0.0930096
-2.08347e-16
0
-0.417717
-0.803517
-0.803517
-0.417717
0
0
-0.1996
-0.314574
-0.314574
-0.1996
0
0
0
0
0
0
0
0
0.527878
0.21443
0.21443
0.527878
0
-1.0505e-16
0.357202
-0.058456
-0.058456
0.357202
-1.0505e-16
0
-0.0669036
-0.436867
-0.436867
-0.0669036
-1.25657e-16
0
-0.256775
-0.485644
-0.485644
-0.256775
0
0
-0.124948
-0.195977
-0.195977
-0.124948
0
0
0
0
0
0
0
0
-0.527878
-0.21443
-0.21443
-0.527878
0
1.0505e-16
-0.357202
0.058456
0.058456
-0.357202
1.0505e-16
0
0.0669036
0.436867
0.436867
0.0669036
1.25657e-16
0
0.256775
0.485644
0.485644
0.256775
0
0
0.124948
0.195977
0.195977
0.124948
0
0
0
0
0
0
0
0
-0.900536
-0.31765
-0.31765
-0.900536
0
1.42165e-16
-0.616214
0.102869
0.102869
-0.616214
1.42165e-16
0
0.0930096
0.726209
0.726209
0.0930096
2.08347e-16
0
0.417717
0.803517
0.803517
0.417717
0
0
0.1996
0.314574
0.314574
0.1996
0
0
0
0
0
0
0
0
-1.1619e-18
-1.74285e-18
-1.74285e-18
-1.1619e-18
0
-1.00077e-35
4.61524e-20
6.92286e-20
6.92286e-20
4.61524e-20
-1.00077e-35
0
4.70205e-19
7.05307e-19
7.05307e-19
4.70205e-19
-2.71892e-34
0
4.06422e-19
6.09633e-19
6.09633e-19
4.06422e-19
0
0
1.50966e-19
2.26449e-19
2.26449e-19
1.50966e-19
0
0
0
0
0
0
0
0
1.1619e-18
1.74285e-18
1.74285e-18
1.1619e-18
0
1.00077e-35
-4.61524e-20
-6.92286e-20
-6.92286e-20
-4.61524e-20
1.00077e-35
0
-4.70205e-19
-7.05307e-19
-7.05307e-19
-4.70205e-19
2.71892e-34
0
-4.06422e-19
-6.09633e-19
-6.09633e-19
-4.06422e-19
0
0
-1.50966e-19
-2.26449e-19
-2.26449e-19
-1.50966e-19
0
0
0
0
0
0
0
0
0.900536
0.31765
0.31765
0.900536
0
-1.42165e-16
0.616214
-0.102869
-0.102869
0.616214
-1.42165e-16
0
-0.0930096
-0.726209
-0.726209
-0.0930096
-2.08347e-16
0
-0.417717
-0.803517
-0.803517
-0.417717
0
0
-0.1996
-0.314574
-0.314574
-0.1996
0
0
0
0
0
0
0
0
0.527878
0.21443
0.21443
0.527878
0
-1.0505e-16
0.357202
-0.058456
-0.058456
0.357202
-1.0505e-16
0
-0.0669036
-0.436867
-0.436867
-0.0669036
-1.25657e-16
0
-0.256775
-0.485644
-0.485644
-0.256775
0
0
-0.124948
-0.195977
-0.195977
-0.124948
0
0
0
0
0
0
0
0
-0.527878
-0.21443
-0.21443
-0.527878
0
1.0505e-16
-0.357202
0.058456
0.058456
-0.357202
1.0505e-16
0
0.0669036
0.436867
0.436867
0.0669036
1.25657e-16
0
0.256775
0.485644
0.485644
0.256775
0
0
0.124948
0.195977
0.195977
0.124948
0
0
0
0
0
0
0
0
-0.900536
-0.31765
-0.31765
-0.900536
0
1.42165e-16
-0.616214
0.102869
0.102869
-0.616214
1.42165e-16
0
0.0930096
0.726209
0.726209
0.0930096
2.08347e-16
0
0.417717
0.803517
0.803517
0.417717
0
0
0.1996
0.314574
0.314574
0.1996
0
0
0
0
0
0
0
0
-1.1619e-18
-1.74285e-18
-1.74285e-18
-1.1619e-18
0
-1.00077e-35
4.61524e-20
6.92286e-20
6.92286e-20
4.61524e-20
-1.00077e-35
0
4.70205e-19
7.05307e-19
7.05307e-19
4.70205e-19
-2.71892e-34
0
4.06422e-19
6.09633e-19
6.09633e-19
4.06422e-19
0
0
1.50966e-19
2.26449e-19
2.26449e-19
1.50966e-19
0
0
0
0
0
0
0

