# vtk DataFile Version 3.0
AMR mesh
ASCII
DATASET UNSTRUCTURED_GRID
POINTS 54 double
1 0 1
0.5 0 0.5
0 0 0
0.5 0 1
0.2tttttt5 0 0.75
0 0 0.5
0 0 1
0 0 1
0 0 1
1 0.5 1
0.5 0.5 0.5
0 0.5 0
0.5 0.5 1
0.25 0.5 0.75
0 0.5 0.5
0 0.5 1
0 0.5 1
0 0.5 1
1 1 1
0.5 1 0.5
0 1 0
0.5 1 1
0.25 1 0.75
0 1 0.5
0 1 1
0 1 1
0 1 1
0 0 0
0.5 0 0.5
1 0 1
0.5 0 0
0.75 0 0.25
1 0 0.5
1 0 0
1 0 0
1 0 0
0 0.5 0
0.5 0.5 0.5
1 0.5 1
0.5 0.5 0
0.75 0.5 0.25
1 0.5 0.5
1 0.5 0
1 0.5 0
1 0.5 0
0 1 0
0.5 1 0.5
1 1 1
0.5 1 0
0.75 1 0.25
1 1 0.5
1 1 0
1 1 0
1 1 0

CELLS 16 144
8 0 1 4 3 9 10 13 12 
8 1 2 5 4 10 11 14 13 
8 3 4 7 6 12 13 16 15 
8 4 5 8 7 13 14 17 16 
8 9 10 13 12 18 19 22 21 
8 10 11 14 13 19 20 23 22 
8 12 13 16 15 21 22 25 24 
8 13 14 17 16 22 23 26 25 
8 27 28 31 30 36 37 40 39 
8 28 29 32 31 37 38 41 40 
8 30 31 34 33 39 40 43 42 
8 31 32 35 34 40 41 44 43 
8 36 37 40 39 45 46 49 48 
8 37 38 41 40 46 47 50 49 
8 39 40 43 42 48 49 52 51 
8 40 41 44 43 49 50 53 52 
CELL_TYPES 16
12
12
12
12
12
12
12
12
12
12
12
12
12
12
12
12

POINT_DATA 54
SCALARS SolU double 1
LOOKUP_TABLE default
0
1.81547e-18
0
0
-7.51223e-19
0
0
0
0
0
-4.40983e-17
0
0
3.56351e-17
0
0
0
0
0
-1.81547e-18
0
0
7.51223e-19
0
0
0
0
0
1.81547e-18
0
0
-7.51223e-19
0
0
0
0
0
-4.40983e-17
0
0
3.11572e-17
0
0
0
0
0
-1.81547e-18
0
0
7.51223e-19
0
0
0
0

