# vtk DataFile Version 3.0
AMR mesh
ASCII
DATASET UNSTRUCTURED_GRID
POINTS 2000 double
1 0 1
0.888889 0 0.888889
0.777778 0 0.777778
0.666667 0 0.666667
0.555556 0 0.555556
0.444444 0 0.444444
0.333333 0 0.333333
0.222222 0 0.222222
0.111111 0 0.111111
0 0 0
0.888889 0 1
0.790123 0 0.901235
0.691358 0 0.802469
0.592593 0 0.703704
0.493827 0 0.604938
0.395062 0 0.506173
0.296296 0 0.407407
0.197531 0 0.308642
0.0987654 0 0.209877
0 0 0.111111
0.777778 0 1
0.691358 0 0.91358
0.604938 0 0.82716
0.518519 0 0.740741
0.432099 0 0.654321
0.345679 0 0.567901
0.259259 0 0.481481
0.17284 0 0.395062
0.0864198 0 0.308642
0 0 0.222222
0.666667 0 1
0.592593 0 0.925926
0.518519 0 0.851852
0.444444 0 0.777778
0.37037 0 0.703704
0.296296 0 0.62963
0.222222 0 0.555556
0.148148 0 0.481481
0.0740741 0 0.407407
0 0 0.333333
0.555556 0 1
0.493827 0 0.938272
0.432099 0 0.876543
0.37037 0 0.814815
0.308642 0 0.753086
0.246914 0 0.691358
0.185185 0 0.62963
0.123457 0 0.567901
0.0617284 0 0.506173
0 0 0.444444
0.444444 0 1
0.395062 0 0.950617
0.345679 0 0.901235
0.296296 0 0.851852
0.246914 0 0.802469
0.197531 0 0.753086
0.148148 0 0.703704
0.0987654 0 0.654321
0.0493827 0 0.604938
0 0 0.555556
0.333333 0 1
0.296296 0 0.962963
0.259259 0 0.925926
0.222222 0 0.888889
0.185185 0 0.851852
0.148148 0 0.814815
0.111111 0 0.777778
0.0740741 0 0.740741
0.037037 0 0.703704
0 0 0.666667
0.222222 0 1
0.197531 0 0.975309
0.17284 0 0.950617
0.148148 0 0.925926
0.123457 0 0.901235
0.0987654 0 0.876543
0.0740741 0 0.851852
0.0493827 0 0.82716
0.0246914 0 0.802469
0 0 0.777778
0.111111 0 1
0.0987654 0 0.987654
0.0864198 0 0.975309
0.0740741 0 0.962963
0.0617284 0 0.950617
0.0493827 0 0.938272
0.037037 0 0.925926
0.0246914 0 0.91358
0.0123457 0 0.901235
0 0 0.888889
0 0 1
0 0 1
0 0 1
0 0 1
0 0 1
0 0 1
0 0 1
0 0 1
0 0 1
0 0 1
1 0.111111 1
0.888889 0.111111 0.888889
0.777778 0.111111 0.777778
0.666667 0.111111 0.666667
0.555556 0.111111 0.555556
0.444444 0.111111 0.444444
0.333333 0.111111 0.333333
0.222222 0.111111 0.222222
0.111111 0.111111 0.111111
0 0.111111 0
0.888889 0.111111 1
0.790123 0.111111 0.901235
0.691358 0.111111 0.802469
0.592593 0.111111 0.703704
0.493827 0.111111 0.604938
0.395062 0.111111 0.506173
0.296296 0.111111 0.407407
0.197531 0.111111 0.308642
0.0987654 0.111111 0.209877
0 0.111111 0.111111
0.777778 0.111111 1
0.691358 0.111111 0.91358
0.604938 0.111111 0.82716
0.518519 0.111111 0.740741
0.432099 0.111111 0.654321
0.345679 0.111111 0.567901
0.259259 0.111111 0.481481
0.17284 0.111111 0.395062
0.0864198 0.111111 0.308642
0 0.111111 0.222222
0.666667 0.111111 1
0.592593 0.111111 0.925926
0.518519 0.111111 0.851852
0.444444 0.111111 0.777778
0.37037 0.111111 0.703704
0.296296 0.111111 0.62963
0.222222 0.111111 0.555556
0.148148 0.111111 0.481481
0.0740741 0.111111 0.407407
0 0.111111 0.333333
0.555556 0.111111 1
0.493827 0.111111 0.938272
0.432099 0.111111 0.876543
0.37037 0.111111 0.814815
0.308642 0.111111 0.753086
0.246914 0.111111 0.691358
0.185185 0.111111 0.62963
0.123457 0.111111 0.567901
0.0617284 0.111111 0.506173
0 0.111111 0.444444
0.444444 0.111111 1
0.395062 0.111111 0.950617
0.345679 0.111111 0.901235
0.296296 0.111111 0.851852
0.246914 0.111111 0.802469
0.197531 0.111111 0.753086
0.148148 0.111111 0.703704
0.0987654 0.111111 0.654321
0.0493827 0.111111 0.604938
0 0.111111 0.555556
0.333333 0.111111 1
0.296296 0.111111 0.962963
0.259259 0.111111 0.925926
0.222222 0.111111 0.888889
0.185185 0.111111 0.851852
0.148148 0.111111 0.814815
0.111111 0.111111 0.777778
0.0740741 0.111111 0.740741
0.037037 0.111111 0.703704
0 0.111111 0.666667
0.222222 0.111111 1
0.197531 0.111111 0.975309
0.17284 0.111111 0.950617
0.148148 0.111111 0.925926
0.123457 0.111111 0.901235
0.0987654 0.111111 0.876543
0.0740741 0.111111 0.851852
0.0493827 0.111111 0.82716
0.0246914 0.111111 0.802469
0 0.111111 0.777778
0.111111 0.111111 1
0.0987654 0.111111 0.987654
0.0864198 0.111111 0.975309
0.0740741 0.111111 0.962963
0.0617284 0.111111 0.950617
0.0493827 0.111111 0.938272
0.037037 0.111111 0.925926
0.0246914 0.111111 0.91358
0.0123457 0.111111 0.901235
0 0.111111 0.888889
0 0.111111 1
0 0.111111 1
0 0.111111 1
0 0.111111 1
0 0.111111 1
0 0.111111 1
0 0.111111 1
0 0.111111 1
0 0.111111 1
0 0.111111 1
1 0.222222 1
0.888889 0.222222 0.888889
0.777778 0.222222 0.777778
0.666667 0.222222 0.666667
0.555556 0.222222 0.555556
0.444444 0.222222 0.444444
0.333333 0.222222 0.333333
0.222222 0.222222 0.222222
0.111111 0.222222 0.111111
0 0.222222 0
0.888889 0.222222 1
0.790123 0.222222 0.901235
0.691358 0.222222 0.802469
0.592593 0.222222 0.703704
0.493827 0.222222 0.604938
0.395062 0.222222 0.506173
0.296296 0.222222 0.407407
0.197531 0.222222 0.308642
0.0987654 0.222222 0.209877
0 0.222222 0.111111
0.777778 0.222222 1
0.691358 0.222222 0.91358
0.604938 0.222222 0.82716
0.518519 0.222222 0.740741
0.432099 0.222222 0.654321
0.345679 0.222222 0.567901
0.259259 0.222222 0.481481
0.17284 0.222222 0.395062
0.0864198 0.222222 0.308642
0 0.222222 0.222222
0.666667 0.222222 1
0.592593 0.222222 0.925926
0.518519 0.222222 0.851852
0.444444 0.222222 0.777778
0.37037 0.222222 0.703704
0.296296 0.222222 0.62963
0.222222 0.222222 0.555556
0.148148 0.222222 0.481481
0.0740741 0.222222 0.407407
0 0.222222 0.333333
0.555556 0.222222 1
0.493827 0.222222 0.938272
0.432099 0.222222 0.876543
0.37037 0.222222 0.814815
0.308642 0.222222 0.753086
0.246914 0.222222 0.691358
0.185185 0.222222 0.62963
0.123457 0.222222 0.567901
0.0617284 0.222222 0.506173
0 0.222222 0.444444
0.444444 0.222222 1
0.395062 0.222222 0.950617
0.345679 0.222222 0.901235
0.296296 0.222222 0.851852
0.246914 0.222222 0.802469
0.197531 0.222222 0.753086
0.148148 0.222222 0.703704
0.0987654 0.222222 0.654321
0.0493827 0.222222 0.604938
0 0.222222 0.555556
0.333333 0.222222 1
0.296296 0.222222 0.962963
0.259259 0.222222 0.925926
0.222222 0.222222 0.888889
0.185185 0.222222 0.851852
0.148148 0.222222 0.814815
0.111111 0.222222 0.777778
0.0740741 0.222222 0.740741
0.037037 0.222222 0.703704
0 0.222222 0.666667
0.222222 0.222222 1
0.197531 0.222222 0.975309
0.17284 0.222222 0.950617
0.148148 0.222222 0.925926
0.123457 0.222222 0.901235
0.0987654 0.222222 0.876543
0.0740741 0.222222 0.851852
0.0493827 0.222222 0.82716
0.0246914 0.222222 0.802469
0 0.222222 0.777778
0.111111 0.222222 1
0.0987654 0.222222 0.987654
0.0864198 0.222222 0.975309
0.0740741 0.222222 0.962963
0.0617284 0.222222 0.950617
0.0493827 0.222222 0.938272
0.037037 0.222222 0.925926
0.0246914 0.222222 0.91358
0.0123457 0.222222 0.901235
0 0.222222 0.888889
0 0.222222 1
0 0.222222 1
0 0.222222 1
0 0.222222 1
0 0.222222 1
0 0.222222 1
0 0.222222 1
0 0.222222 1
0 0.222222 1
0 0.222222 1
1 0.333333 1
0.888889 0.333333 0.888889
0.777778 0.333333 0.777778
0.666667 0.333333 0.666667
0.555556 0.333333 0.555556
0.444444 0.333333 0.444444
0.333333 0.333333 0.333333
0.222222 0.333333 0.222222
0.111111 0.333333 0.111111
0 0.333333 0
0.888889 0.333333 1
0.790123 0.333333 0.901235
0.691358 0.333333 0.802469
0.592593 0.333333 0.703704
0.493827 0.333333 0.604938
0.395062 0.333333 0.506173
0.296296 0.333333 0.407407
0.197531 0.333333 0.308642
0.0987654 0.333333 0.209877
0 0.333333 0.111111
0.777778 0.333333 1
0.691358 0.333333 0.91358
0.604938 0.333333 0.82716
0.518519 0.333333 0.740741
0.432099 0.333333 0.654321
0.345679 0.333333 0.567901
0.259259 0.333333 0.481481
0.17284 0.333333 0.395062
0.0864198 0.333333 0.308642
0 0.333333 0.222222
0.666667 0.333333 1
0.592593 0.333333 0.925926
0.518519 0.333333 0.851852
0.444444 0.333333 0.777778
0.37037 0.333333 0.703704
0.296296 0.333333 0.62963
0.222222 0.333333 0.555556
0.148148 0.333333 0.481481
0.0740741 0.333333 0.407407
0 0.333333 0.333333
0.555556 0.333333 1
0.493827 0.333333 0.938272
0.432099 0.333333 0.876543
0.37037 0.333333 0.814815
0.308642 0.333333 0.753086
0.246914 0.333333 0.691358
0.185185 0.333333 0.62963
0.123457 0.333333 0.567901
0.0617284 0.333333 0.506173
0 0.333333 0.444444
0.444444 0.333333 1
0.395062 0.333333 0.950617
0.345679 0.333333 0.901235
0.296296 0.333333 0.851852
0.246914 0.333333 0.802469
0.197531 0.333333 0.753086
0.148148 0.333333 0.703704
0.0987654 0.333333 0.654321
0.0493827 0.333333 0.604938
0 0.333333 0.555556
0.333333 0.333333 1
0.296296 0.333333 0.962963
0.259259 0.333333 0.925926
0.222222 0.333333 0.888889
0.185185 0.333333 0.851852
0.148148 0.333333 0.814815
0.111111 0.333333 0.777778
0.0740741 0.333333 0.740741
0.037037 0.333333 0.703704
0 0.333333 0.666667
0.222222 0.333333 1
0.197531 0.333333 0.975309
0.17284 0.333333 0.950617
0.148148 0.333333 0.925926
0.123457 0.333333 0.901235
0.0987654 0.333333 0.876543
0.0740741 0.333333 0.851852
0.0493827 0.333333 0.82716
0.0246914 0.333333 0.802469
0 0.333333 0.777778
0.111111 0.333333 1
0.0987654 0.333333 0.987654
0.0864198 0.333333 0.975309
0.0740741 0.333333 0.962963
0.0617284 0.333333 0.950617
0.0493827 0.333333 0.938272
0.037037 0.333333 0.925926
0.0246914 0.333333 0.91358
0.0123457 0.333333 0.901235
0 0.333333 0.888889
0 0.333333 1
0 0.333333 1
0 0.333333 1
0 0.333333 1
0 0.333333 1
0 0.333333 1
0 0.333333 1
0 0.333333 1
0 0.333333 1
0 0.333333 1
1 0.444444 1
0.888889 0.444444 0.888889
0.777778 0.444444 0.777778
0.666667 0.444444 0.666667
0.555556 0.444444 0.555556
0.444444 0.444444 0.444444
0.333333 0.444444 0.333333
0.222222 0.444444 0.222222
0.111111 0.444444 0.111111
0 0.444444 0
0.888889 0.444444 1
0.790123 0.444444 0.901235
0.691358 0.444444 0.802469
0.592593 0.444444 0.703704
0.493827 0.444444 0.604938
0.395062 0.444444 0.506173
0.296296 0.444444 0.407407
0.197531 0.444444 0.308642
0.0987654 0.444444 0.209877
0 0.444444 0.111111
0.777778 0.444444 1
0.691358 0.444444 0.91358
0.604938 0.444444 0.82716
0.518519 0.444444 0.740741
0.432099 0.444444 0.654321
0.345679 0.444444 0.567901
0.259259 0.444444 0.481481
0.17284 0.444444 0.395062
0.0864198 0.444444 0.308642
0 0.444444 0.222222
0.666667 0.444444 1
0.592593 0.444444 0.925926
0.518519 0.444444 0.851852
0.444444 0.444444 0.777778
0.37037 0.444444 0.703704
[...]
POINT_DATA 2000
SCALARS SolU double 1
LOOKUP_TABLE default
0
7.17221e-19
1.25514e-18
1.61375e-18
1.79305e-18
1.79305e-18
1.61375e-18
1.25514e-18
7.17221e-19
0
7.34499e-35
2.32324e-19
4.06567e-19
5.22728e-19
5.80809e-19
5.80809e-19
5.22728e-19
4.06567e-19
2.32324e-19
7.34499e-35
0
-7.81287e-20
-1.36725e-19
-1.7579e-19
-1.95322e-19
-1.95322e-19
-1.7579e-19
-1.36725e-19
-7.81287e-20
-5.64586e-35
1.03481e-34
-2.45483e-19
-4.29596e-19
-5.52338e-19
-6.13709e-19
-6.13709e-19
-5.52338e-19
-4.29596e-19
-2.45483e-19
1.03481e-34
0
-3.01088e-19
-5.26903e-19
-6.77447e-19
-7.52719e-19
-7.52719e-19
-6.77447e-19
-5.26903e-19
-3.01088e-19
0
0
-2.76288e-19
-4.83505e-19
-6.21649e-19
-6.90721e-19
-6.90721e-19
-6.21649e-19
-4.83505e-19
-2.76288e-19
0
0
-2.02433e-19
-3.54258e-19
-4.55474e-19
-5.06082e-19
-5.06082e-19
-4.55474e-19
-3.54258e-19
-2.02433e-19
3.41333e-34
0
-1.10868e-19
-1.9402e-19
-2.49454e-19
-2.77171e-19
-2.77171e-19
-2.49454e-19
-1.9402e-19
-1.10868e-19
0
0
-3.29416e-20
-5.76478e-20
-7.41186e-20
-8.2354e-20
-8.2354e-20
-7.41186e-20
-5.76478e-20
-3.29416e-20
0
0
0
0
0
0
0
0
0
0
0
0
0.285776
0.661803
0.442818
0.0830911
0.0830911
0.442818
0.661803
0.285776
0
-5.22895e-18
0.378184
0.583396
0.317654
-0.00902267
-0.00902267
0.317654
0.583396
0.378184
-5.22895e-18
0
0.325395
0.354855
0.0655261
-0.213185
-0.213185
0.0655261
0.354855
0.325395
1.67333e-16
-9.43722e-17
0.168474
0.0603982
-0.222296
-0.446638
-0.446638
-0.222296
0.0603982
0.168474
-9.43722e-17
0
-0.00421893
-0.187722
-0.434786
-0.603507
-0.603507
-0.434786
-0.187722
-0.00421893
0
0
-0.117121
-0.309201
-0.498571
-0.613986
-0.613986
-0.498571
-0.309201
-0.117121
0
0
-0.139288
-0.28682
-0.408027
-0.475954
-0.475954
-0.408027
-0.28682
-0.139288
1.84455e-16
0
-0.0907823
-0.169379
-0.22701
-0.257442
-0.257442
-0.22701
-0.169379
-0.0907823
0
0
-0.0264575
-0.0470783
-0.0611996
-0.0683734
-0.0683734
-0.0611996
-0.0470783
-0.0264575
0
0
0
0
0
0
0
0
0
0
0
0
0.471314
0.95181
0.649286
0.174501
0.174501
0.649286
0.95181
0.471314
0
6.05664e-17
0.604822
0.855202
0.468838
0.0183703
0.0183703
0.468838
0.855202
0.604822
6.05664e-17
0
0.500167
0.511209
0.0867165
-0.306781
-0.306781
0.0867165
0.511209
0.500167
3.29451e-16
-1.56179e-16
0.247768
0.0703672
-0.344628
-0.665896
-0.665896
-0.344628
0.0703672
0.247768
-1.56179e-16
0
-0.0168178
-0.297601
-0.661055
-0.905376
-0.905376
-0.661055
-0.297601
-0.0168178
0
0
-0.18609
-0.477111
-0.757843
-0.927144
-0.927144
-0.757843
-0.477111
-0.18609
0
0
-0.21846
-0.443982
-0.626632
-0.728233
-0.728233
-0.626632
-0.443982
-0.21846
2.95267e-16
0
-0.144306
-0.26745
-0.356934
-0.403951
-0.403951
-0.356934
-0.26745
-0.144306
0
0
-0.0437942
-0.0777371
-0.100893
-0.11263
-0.11263
-0.100893
-0.0777371
-0.0437942
0
0
0
0
0
0
0
0
0
0
0
0
0.427269
0.807072
0.561392
0.183458
0.183458
0.561392
0.807072
0.427269
0
8.17453e-17
0.536131
0.727343
0.402235
0.0334733
0.0334733
0.402235
0.727343
0.536131
8.17453e-17
0
0.433344
0.428193
0.0681417
-0.258749
-0.258749
0.0681417
0.428193
0.433344
3.15614e-16
-1.39411e-16
0.208541
0.0486461
-0.304043
-0.573311
-0.573311
-0.304043
0.0486461
0.208541
-1.39411e-16
0
-0.0210124
-0.265629
-0.575152
-0.78134
-0.78134
-0.575152
-0.265629
-0.0210124
0
0
-0.165896
-0.418031
-0.658199
-0.802158
-0.802158
-0.658199
-0.418031
-0.165896
0
0
-0.192747
-0.388923
-0.546546
-0.633861
-0.633861
-0.546546
-0.388923
-0.192747
2.63434e-16
0
-0.12795
-0.236332
-0.314722
-0.355801
-0.355801
-0.314722
-0.236332
-0.12795
0
0
-0.0395283
-0.0700855
-0.0908945
-0.101431
-0.101431
-0.0908945
-0.0700855
-0.0395283
0
0
0
0
0
0
0
0
0
0
0
0
0.170597
0.313374
0.220381
0.0783833
0.0783833
0.220381
0.313374
0.170597
0
3.68187e-17
0.211628
0.282223
0.156892
0.0164224
0.0164224
0.156892
0.282223
0.211628
3.68187e-17
0
0.169234
0.164749
0.0253321
-0.100075
-0.100075
0.0253321
0.164749
0.169234
1.28233e-16
-5.50591e-17
0.0802702
0.01664
-0.120109
-0.223854
-0.223854
-0.120109
0.01664
0.0802702
-5.50591e-17
0
-0.00950451
-0.105466
-0.225618
-0.305322
-0.305322
-0.225618
-0.105466
-0.00950451
0
0
-0.0657941
-0.164456
-0.257885
-0.31373
-0.31373
-0.257885
-0.164456
-0.0657941
0
0
-0.0760302
-0.152917
-0.214471
-0.248504
-0.248504
-0.214471
-0.152917
-0.0760302
1.04436e-16
0
-0.050554
-0.0932388
-0.124048
-0.140175
-0.140175
-0.124048
-0.0932388
-0.050554
0
0
-0.0157294
-0.0278758
-0.0361411
-0.0403244
-0.0403244
-0.0361411
-0.0278758
-0.0157294
0
0
0
0
0
0
0
0
0
0
0
0
-0.170597
-0.313374
-0.220381
-0.0783833
-0.0783833
-0.220381
-0.313374
-0.170597
0
-3.68187e-17
-0.211628
-0.282223
-0.156892
-0.0164224
-0.0164224
-0.156892
-0.282223
-0.211628
-3.68187e-17
0
-0.169234
-0.164749
-0.0253321
0.100075
0.100075
-0.0253321
-0.164749
-0.169234
-1.28233e-16
5.50591e-17
-0.0802702
-0.01664
0.120109
0.223854
0.223854
0.120109
-0.01664
-0.0802702
5.50591e-17
0
0.00950451
0.105466
0.225618
0.305322
0.305322
0.225618
0.105466
0.00950451
0
0
0.0657941
0.164456
0.257885
0.31373
0.31373
0.257885
0.164456
0.0657941
0
0
0.0760302
0.152917
0.214471
0.248504
0.248504
0.214471
0.152917
0.0760302
-1.04436e-16
0
0.050554
0.0932388
0.124048
0.140175
0.140175
0.124048
0.0932388
0.050554
0
0
0.0157294
0.0278758
0.0361411
0.0403244
0.0403244
0.0361411
0.0278758
0.0157294
0
0
0
0
0
0
0
0
0
0
0
0
-0.427269
-0.807072
-0.561392
-0.183458
-0.183458
-0.561392
-0.807072
-0.427269
0
-8.17453e-17
-0.536131
-0.727343
-0.402235
-0.0334733
-0.0334733
-0.402235
-0.727343
-0.536131
-8.17453e-17
0
-0.433344
-0.428193
-0.0681417
0.258749
0.258749
-0.0681417
-0.428193
-0.433344
-3.15614e-16
1.39411e-16
-0.208541
-0.0486461
0.304043
0.573311
0.573311
0.304043
-0.0486461
-0.208541
1.39411e-16
0
0.0210124
0.265629
0.575152
0.78134
0.78134
0.575152
0.265629
0.0210124
0
0
0.165896
0.418031
0.658199
0.802158
0.802158
0.658199
0.418031
0.165896
0
0
0.192747
0.388923
0.546546
0.633861
0.633861
0.546546
0.388923
0.192747
-2.63434e-16
0
0.12795
0.236332
0.314722
0.355801
0.355801
0.314722
0.236332
0.12795
0
0
0.0395283
0.0700855
0.0908945
0.101431
0.101431
0.0908945
0.0700855
0.0395283
0
0
0
0
0
0
0
0
0
0
0
0
-0.471314
-0.95181
-0.649286
-0.174501
-0.174501
-0.649286
-0.95181
-0.471314
0
-6.05664e-17
-0.604822
-0.855202
-0.468838
-0.0183703
-0.0183703
-0.468838
-0.855202
-0.604822
-6.05664e-17
0
-0.500167
-0.511209
-0.0867165
0.306781
0.306781
-0.0867165
-0.511209
-0.500167
-3.29451e-16
1.56179e-16
-0.247768
-0.0703672
0.344628
0.665896
0.665896
0.344628
-0.0703672
-0.247768
1.56179e-16
0
0.0168178
0.297601
0.661055
0.905376
0.905376
0.661055
0.297601
0.0168178
0
0
0.18609
0.477111
0.757843
0.927144
0.927144
0.757843
0.477111
0.18609
0
0
0.21846
0.443982
0.626632
0.728233
0.728233
0.626632
0.443982
0.21846
-2.95267e-16
0
0.144306
0.26745
0.356934
0.403951
0.403951
0.356934
0.26745
0.144306
0
0
0.0437942
0.0777371
0.100893
0.11263
0.11263
0.100893
0.0777371
0.0437942
0
0
0
0
0
0
0
0
0
0
0
0
-0.285776
-0.661803
-0.442818
-0.0830911
-0.0830911
-0.442818
-0.661803
-0.285776
0
5.22895e-18
-0.378184
-0.583396
-0.317654
0.00902267
0.00902267
-0.317654
-0.583396
-0.378184
5.22895e-18
0
-0.325395
-0.354855
-0.0655261
0.213185
0.213185
-0.0655261
-0.354855
-0.325395
-1.67333e-16
9.43722e-17
-0.168474
-0.0603982
0.222296
0.446638
0.446638
0.222296
-0.0603982
-0.168474
9.43722e-17
0
0.00421893
0.187722
0.434786
0.603507
0.603507
0.434786
0.187722
0.00421893
0
0
0.117121
0.309201
0.498571
0.613986
0.613986
0.498571
0.309201
0.117121
0
0
0.139288
0.28682
0.408027
0.475954
0.475954
0.408027
0.28682
0.139288
-1.84455e-16
0
0.0907823
0.169379
0.22701
0.257442
0.257442
0.22701
0.169379
0.0907823
0
0
0.0264575
0.0470783
0.0611996
0.0683734
0.0683734
0.0611996
0.0470783
0.0264575
0
0
0
0
0
0
0
0
0
0
0
0
-7.17221e-19
-1.25514e-18
-1.61375e-18
-1.79305e-18
-1.79305e-18
-1.61375e-18
-1.25514e-18
-7.17221e-19
0
-7.34499e-35
-2.32324e-19
-4.06567e-19
-5.22728e-19
-5.80809e-19
-5.80809e-19
-5.22728e-19
-4.06567e-19
-2.32324e-19
-7.34499e-35
0
7.81287e-20
1.36725e-19
1.7579e-19
1.95322e-19
1.95322e-19
1.7579e-19
1.36725e-19
7.81287e-20
5.64586e-35
-1.03481e-34
2.45483e-19
4.29596e-19
5.52338e-19
6.13709e-19
6.13709e-19
5.52338e-19
4.29596e-19
2.45483e-19
-1.03481e-34
0
3.01088e-19
5.26903e-19
6.77447e-19
7.52719e-19
7.52719e-19
6.77447e-19
5.26903e-19
3.01088e-19
0
0
2.76288e-19
4.83505e-19
6.21649e-19
6.90721e-19
6.90721e-19
6.21649e-19
4.83505e-19
2.76288e-19
0
0
2.02433e-19
3.54258e-19
4.55474e-19
5.06082e-19
5.06082e-19
4.55474e-19
3.54258e-19
2.02433e-19
-3.41333e-34
0
1.10868e-19
1.9402e-19
2.49454e-19
2.77171e-19
2.77171e-19
2.49454e-19
1.9402e-19
1.10868e-19
0
0
3.29416e-20
5.76478e-20
7.41186e-20
8.2354e-20
8.2354e-20
7.41186e-20
5.76478e-20
3.29416e-20
0
0
0
0
0
0
0
0
0
0
0
0
7.17221e-19
1.25514e-18
1.61375e-18
1.79305e-18
1.79305e-18
1.61375e-18
1.25514e-18
7.17221e-19
0
7.34499e-35
2.32324e-19
4.06567e-19
5.22728e-19
5.80809e-19
5.80809e-19
5.22728e-19
4.06567e-19
2.32324e-19
7.34499e-35
0
-7.81287e-20
-1.36725e-19
-1.7579e-19
-1.95322e-19
-1.95322e-19
-1.7579e-19
-1.36725e-19
-7.81287e-20
-5.64586e-35
1.03481e-34
-2.45483e-19
-4.29596e-19
-5.52338e-19
-6.13709e-19
-6.13709e-19
-5.52338e-19
-4.29596e-19
-2.45483e-19
1.03481e-34
0
-3.01088e-19
-5.26903e-19
-6.77447e-19
-7.52719e-19
-7.52719e-19
-6.77447e-19
-5.26903e-19
-3.01088e-19
0
0
-2.76288e-19
-4.83505e-19
-6.21649e-19
-6.90721e-19
-6.90721e-19
-6.21649e-19
-4.83505e-19
-2.76288e-19
0
0
-2.02433e-19
-3.54258e-19
-4.55474e-19
-5.06082e-19
-5.06082e-19
-4.55474e-19
-3.54258e-19
-2.02433e-19
3.41333e-34
0
-1.10868e-19
-1.9402e-19
-2.49454e-19
-2.77171e-19
-2.77171e-19
-2.49454e-19
-1.9402e-19
-1.10868e-19
0
0
-3.29416e-20
-5.76478e-20
-7.41186e-20
-8.2354e-20
-8.2354e-20
-7.41186e-20
-5.76478e-20
-3.29416e-20
0
0
0
0
0
0
0
0
0
0
0
0
0.285776
0.661803
0.442818
0.0830911
0.0830911
0.442818
0.661803
0.285776
0
-5.22895e-18
0.378184
0.583396
0.317654
-0.00902267
-0.00902267
0.317654
0.583396
0.378184
-5.22895e-18
0
0.325395
0.354855
0.0655261
-0.213185
-0.213185
0.0655261
0.354855
0.325395
1.67333e-16
-9.43722e-17
0.168474
0.0603982
-0.222296
-0.446638
-0.446638
-0.222296
0.0603982
0.168474
-9.43722e-17
0
-0.00421893
-0.187722
-0.434786
-0.603507
-0.603507
-0.434786
-0.187722
-0.00421893
0
0
-0.117121
-0.309201
-0.498571
-0.613986
-0.613986
-0.498571
-0.309201
-0.117121
0
0
-0.139288
-0.28682
-0.408027
-0.475954
-0.475954
-0.408027
-0.28682
-0.139288
1.84455e-16
0
-0.0907823
-0.169379
-0.22701
-0.257442
-0.257442
-0.22701
-0.169379
-0.0907823
0
0
-0.0264575
-0.0470783
-0.0611996
-0.0683734
-0.0683734
-0.0611996
-0.0470783
-0.0264575
0
0
0
0
0
0
0
0
0
0
0
0
0.471314
0.95181
0.649286
0.174501
0.174501
0.649286
0.95181
0.471314
0
6.05664e-17
0.604822
0.855202
0.468838
0.0183703
0.0183703
0.468838
0.855202
0.604822
6.05664e-17
0
0.500167
0.511209
0.0867165
-0.306781
-0.306781
0.0867165
0.511209
0.500167
3.29451e-16
-1.56179e-16
0.247768
0.0703672
-0.344628
-0.665896
-0.665896
-0.344628
0.0703672
0.247768
-1.56179e-16
0
-0.0168178
-0.297601
-0.661055
-0.905376
-0.905376
-0.661055
-0.297601
-0.0168178
0
0
-0.18609
-0.477111
-0.757843
-0.927144
-0.927144
-0.757843
-0.477111
-0.18609
0
0
-0.21846
-0.443982
-0.626632
-0.728233
-0.728233
-0.626632
-0.443982
-0.21846
2.95267e-16
0
-0.144306
-0.26745
-0.356934
-0.403951
-0.403951
-0.356934
-0.26745
-0.144306
0
0
-0.0437942
-0.0777371
-0.100893
-0.11263
-0.11263
-0.100893
-0.0777371
-0.0437942
0
0
0
0
0
0
0
0
0
0
0
0
0.427269
0.807072
0.561392
0.183458
0.183458
0.561392
0.807072
0.427269
0
8.17453e-17
0.536131
0.727343
0.402235
0.0334733
0.0334733
0.402235
0.727343
0.536131
8.17453e-17
0
0.433344
0.428193
0.0681417
-0.258749
-0.258749
0.0681417
0.428193
0.433344
3.15614e-16
-1.39411e-16
0.208541
0.0486461
-0.304043
-0.573311
-0.573311
-0.304043
0.0486461
0.208541
-1.39411e-16
0
-0.0210124
-0.265629
-0.575152
-0.78134
-0.78134
-0.575152
-0.265629
-0.0210124
0
0
-0.165896
-0.418031
-0.658199
-0.802158
-0.802158
-0.658199
-0.418031
-0.165896
0
0
-0.192747
-0.388923
-0.546546
-0.633861
-0.633861
-0.546546
-0.388923
-0.192747
2.63434e-16
0
-0.12795
-0.236332
-0.314722
-0.355801
-0.355801
-0.314722
-0.236332
-0.12795
0
0
-0.0395283
-0.0700855
-0.0908945
-0.101431
-0.101431
-0.0908945
-0.0700855
-0.0395283
0
0
0
0
0
0
0
0
0
0
0
0
0.170597
0.313374
0.220381
0.0783833
0.0783833
0.220381
0.313374
0.170597
0
3.68187e-17
0.211628
0.282223
0.156892
0.0164224
0.0164224
0.156892
0.282223
0.211628
3.68187e-17
0
0.169234
0.164749
0.0253321
-0.100075
-0.100075
0.0253321
0.164749
0.169234
1.28233e-16
-5.50591e-17
0.0802702
0.01664
-0.120109
-0.223854
-0.223854
-0.120109
0.01664
0.0802702
-5.50591e-17
0
-0.00950451
-0.105466
-0.225618
-0.305322
-0.305322
-0.225618
-0.105466
-0.00950451
0
0
-0.0657941
-0.164456
-0.257885
-0.31373
-0.31373
-0.257885
-0.164456
-0.0657941
0
0
-0.0760302
-0.152917
-0.214471
-0.248504
-0.248504
-0.214471
-0.152917
-0.0760302
1.04436e-16
0
-0.050554
-0.0932388
-0.124048
-0.140175
-0.140175
-0.124048
-0.0932388
-0.050554
0
0
-0.0157294
-0.0278758
-0.0361411
-0.0403244
-0.0403244
-0.0361411
-0.0278758
-0.0157294
0
0
0
0
0
0
0
0
0
0
0
0
-0.170597
-0.313374
-0.220381
-0.0783833
-0.0783833
-0.220381
-0.313374
-0.170597
0
-3.68187e-17
-0.211628
-0.282223
-0.156892
-0.0164224
-0.0164224
-0.156892
-0.282223
-0.211628
-3.68187e-17
0
-0.169234
-0.164749
-0.0253321
0.100075
0.100075
-0.0253321
-0.164749
-0.169234
-1.28233e-16
5.50591e-17
-0.0802702
-0.01664
0.120109
0.223854
0.223854
0.120109
-0.01664
-0.0802702
5.50591e-17
0
0.00950451
0.105466
0.225618
0.305322
0.305322
0.225618
0.105466
0.00950451
0
0
0.0657941
0.164456
0.257885
0.31373
0.31373
0.257885
0.164456
0.0657941
0
0
0.0760302
0.152917
0.214471
0.248504
0.248504
0.214471
0.152917
0.0760302
-1.04436e-16
0
0.050554
0.0932388
0.124048
0.140175
0.140175
0.124048
0.0932388
0.050554
0
0
0.0157294
0.0278758
0.0361411
0.0403244
0.0403244
0.0361411
0.0278758
0.0157294
0
0
0
0
0
0
0
0
0
0
0
0
-0.427269
-0.807072
-0.561392
-0.183458
-0.183458
-0.561392
-0.807072
-0.427269
0
-8.17453e-17
-0.536131
-0.727343
-0.402235
-0.0334733
-0.0334733
-0.402235
-0.727343
-0.536131
-8.17453e-17
0
-0.433344
-0.428193
-0.0681417
0.258749
0.258749
-0.0681417
-0.428193
-0.433344
-3.15614e-16
1.39411e-16
-0.208541
-0.0486461
0.304043
0.573311
0.573311
0.304043
-0.0486461
-0.208541
1.39411e-16
0
0.0210124
0.265629
0.575152
0.78134
0.78134
0.575152
0.265629
0.0210124
0
0
0.165896
0.418031
0.658199
0.802158
0.802158
0.658199
0.418031
0.165896
0
0
0.192747
0.388923
0.546546
0.633861
0.633861
0.546546
0.388923
0.192747
-2.63434e-16
0
0.12795
0.236332
0.314722
0.355801
0.355801
0.314722
0.236332
0.12795
0
0
0.0395283
0.0700855
0.0908945
0.101431
0.101431
0.0908945
0.0700855
0.0395283
0
0
0
0
0
0
0
0
0
0
0
0
-0.471314
-0.95181
-0.649286
-0.174501
-0.174501
-0.649286
-0.95181
-0.471314
0
-6.05664e-17
-0.604822
-0.855202
-0.468838
-0.0183703
-0.0183703
-0.468838
-0.855202
-0.604822
-6.05664e-17
0
-0.500167
-0.511209
-0.0867165
0.306781
0.306781
-0.0867165
-0.511209
-0.500167
-3.29451e-16
1.56179e-16
-0.247768
-0.0703672
0.344628
0.665896
0.665896
0.344628
-0.0703672
-0.247768
1.56179e-16
0
0.0168178
0.297601
0.661055
0.905376
0.905376
0.661055
0.297601
0.0168178
0
0
0.18609
0.477111
0.757843
0.927144
0.927144
0.757843
0.477111
0.18609
0
0
0.21846
0.443982
0.626632
0.728233
0.728233
0.626632
0.443982
0.21846
-2.95267e-16
0
0.144306
0.26745
0.356934
0.403951
0.403951
0.356934
0.26745
0.144306
0
0
0.0437942
0.0777371
0.100893
0.11263
0.11263
0.100893
0.0777371
0.0437942
0
0
0
0
0
0
0
0
0
0
0
0
-0.285776
-0.661803
-0.442818
-0.0830911
-0.0830911
-0.442818
-0.661803
-0.285776
0
5.22895e-18
-0.378184
-0.583396
-0.317654
0.00902267
0.00902267
-0.317654
-0.583396
-0.378184
5.22895e-18
0
-0.325395
-0.354855
-0.0655261
0.213185
0.213185
-0.0655261
-0.354855
-0.325395
-1.67333e-16
9.43722e-17
-0.168474
-0.0603982
0.222296
0.446638
0.446638
0.222296
-0.0603982
-0.168474
9.43722e-17
0
0.00421893
0.187722
0.434786
0.603507
0.603507
0.434786
0.187722
0.00421893
0
0
0.117121
0.309201
0.498571
0.613986
0.613986
0.498571
0.309201
0.117121
0
0
0.139288
0.28682
0.408027
0.475954
0.475954
0.408027
0.28682
0.139288
-1.84455e-16
0
0.0907823
0.169379
0.22701
0.257442
0.257442
0.22701
0.169379
0.0907823
0
0
0.0264575
0.0470783
0.0611996
0.0683734
0.0683734
0.0611996
0.0470783
0.0264575
0
0
0
0
0
0
0
0
0
0
0
0
-7.17221e-19
-1.25514e-18
-1.61375e-18
-1.79305e-18
-1.79305e-18
-1.61375e-18
-1.25514e-18
-7.17221e-19
0
-7.34499e-35
-2.32324e-19
-4.06567e-19
-5.22728e-19
-5.80809e-19
-5.80809e-19
-5.22728e-19
-4.06567e-19
-2.32324e-19
-7.34499e-35
0
7.81287e-20
1.36725e-19
1.7579e-19
1.95322e-19
1.95322e-19
1.7579e-19
1.36725e-19
7.81287e-20
5.64586e-35
-1.03481e-34
2.45483e-19
4.29596e-19
5.52338e-19
6.13709e-19
6.13709e-19
5.52338e-19
4.29596e-19
2.45483e-19
-1.03481e-34
0
3.01088e-19
5.26903e-19
6.77447e-19
7.52719e-19
7.52719e-19
6.77447e-19
5.26903e-19
3.01088e-19
0
0
2.76288e-19
4.83505e-19
6.21649e-19
6.90721e-19
6.90721e-19
6.21649e-19
4.83505e-19
2.76288e-19
0
0
2.02433e-19
3.54258e-19
4.55474e-19
5.06082e-19
5.06082e-19
4.55474e-19
3.54258e-19
2.02433e-19
-3.41333e-34
0
1.10868e-19
1.9402e-19
2.49454e-19
2.77171e-19
2.77171e-19
2.49454e-19
1.9402e-19
1.10868e-19
0
0
3.29416e-20
5.76478e-20
7.41186e-20
8.2354e-20
8.2354e-20
7.41186e-20
5.76478e-20
3.29416e-20
0
0
0
0
0
0
0
0
0
0
0

