# vtk DataFile Version 3.0
AMR mesh
ASCII
DATASET UNSTRUCTURED_GRID
POINTS 1024 double
1 0 1
0.857143 0 0.857143
0.714286 0 0.714286
0.571429 0 0.571429
0.428571 0 0.428571
0.285714 0 0.285714
0.142857 0 0.142857
0 0 0
0.857143 0 1
0.734694 0 0.877551
0.612245 0 0.755102
0.489796 0 0.632653
0.367347 0 0.510204
0.244898 0 0.387755
0.122449 0 0.265306
0 0 0.142857
0.714286 0 1
0.612245 0 0.897959
0.510204 0 0.795918
0.408163 0 0.693878
0.306122 0 0.591837
0.204082 0 0.489796
0.102041 0 0.387755
0 0 0.285714
0.571429 0 1
0.489796 0 0.918367
0.408163 0 0.836735
0.326531 0 0.755102
0.244898 0 0.673469
0.163265 0 0.591837
0.0816327 0 0.510204
0 0 0.428571
0.428571 0 1
0.367347 0 0.938776
0.306122 0 0.877551
0.244898 0 0.816327
0.183673 0 0.755102
0.122449 0 0.693878
0.0612245 0 0.632653
0 0 0.571429
0.285714 0 1
0.244898 0 0.959184
0.204082 0 0.918367
0.163265 0 0.877551
0.122449 0 0.836735
0.0816327 0 0.795918
0.0408163 0 0.755102
0 0 0.714286
0.142857 0 1
0.122449 0 0.979592
0.102041 0 0.959184
0.0816327 0 0.938776
0.0612245 0 0.918367
0.0408163 0 0.897959
0.0204082 0 0.877551
0 0 0.857143
0 0 1
0 0 1
0 0 1
0 0 1
0 0 1
0 0 1
0 0 1
0 0 1
1 0.142857 1
0.857143 0.142857 0.857143
0.714286 0.142857 0.714286
0.571429 0.142857 0.571429
0.428571 0.142857 0.428571
0.285714 0.142857 0.285714
0.142857 0.142857 0.142857
0 0.142857 0
0.857143 0.142857 1
0.734694 0.142857 0.877551
0.612245 0.142857 0.755102
0.489796 0.142857 0.632653
0.367347 0.142857 0.510204
0.244898 0.142857 0.387755
0.122449 0.142857 0.265306
0 0.142857 0.142857
0.714286 0.142857 1
0.612245 0.142857 0.897959
0.510204 0.142857 0.795918
0.408163 0.142857 0.693878
0.306122 0.142857 0.591837
0.204082 0.142857 0.489796
0.102041 0.142857 0.387755
0 0.142857 0.285714
0.571429 0.142857 1
0.489796 0.142857 0.918367
0.408163 0.142857 0.836735
0.326531 0.142857 0.755102
0.244898 0.142857 0.673469
0.163265 0.142857 0.591837
0.0816327 0.142857 0.510204
0 0.142857 0.428571
0.428571 0.142857 1
0.367347 0.142857 0.938776
0.306122 0.142857 0.877551
0.244898 0.142857 0.816327
0.183673 0.142857 0.755102
0.122449 0.142857 0.693878
0.0612245 0.142857 0.632653
0 0.142857 0.571429
0.285714 0.142857 1
0.244898 0.142857 0.959184
0.204082 0.142857 0.918367
0.163265 0.142857 0.877551
0.122449 0.142857 0.836735
0.0816327 0.142857 0.795918
0.0408163 0.142857 0.755102
0 0.142857 0.714286
0.142857 0.142857 1
0.122449 0.142857 0.979592
0.102041 0.142857 0.959184
0.0816327 0.142857 0.938776
0.0612245 0.142857 0.918367
0.0408163 0.142857 0.897959
0.0204082 0.142857 0.877551
0 0.142857 0.857143
0 0.142857 1
0 0.142857 1
0 0.142857 1
0 0.142857 1
0 0.142857 1
0 0.142857 1
0 0.142857 1
0 0.142857 1
1 0.285714 1
0.857143 0.285714 0.857143
0.714286 0.285714 0.714286
0.571429 0.285714 0.571429
0.428571 0.285714 0.428571
0.285714 0.285714 0.285714
0.142857 0.285714 0.142857
0 0.285714 0
0.857143 0.285714 1
0.734694 0.285714 0.877551
0.612245 0.285714 0.755102
0.489796 0.285714 0.632653
0.367347 0.285714 0.510204
0.244898 0.285714 0.387755
0.122449 0.285714 0.265306
0 0.285714 0.142857
0.714286 0.285714 1
0.612245 0.285714 0.897959
0.510204 0.285714 0.795918
0.408163 0.285714 0.693878
0.306122 0.285714 0.591837
0.204082 0.285714 0.489796
0.102041 0.285714 0.387755
0 0.285714 0.285714
0.571429 0.285714 1
0.489796 0.285714 0.918367
0.408163 0.285714 0.836735
0.326531 0.285714 0.755102
0.244898 0.285714 0.673469
0.163265 0.285714 0.591837
0.0816327 0.285714 0.510204
0 0.285714 0.428571
0.428571 0.285714 1
0.367347 0.285714 0.938776
0.306122 0.285714 0.877551
0.244898 0.285714 0.816327
0.183673 0.285714 0.755102
0.122449 0.285714 0.693878
0.0612245 0.285714 0.632653
0 0.285714 0.571429
0.285714 0.285714 1
0.244898 0.285714 0.959184
0.204082 0.285714 0.918367
0.163265 0.285714 0.877551
0.122449 0.285714 0.836735
0.0816327 0.285714 0.795918
0.0408163 0.285714 0.755102
0 0.285714 0.714286
0.142857 0.285714 1
0.122449 0.285714 0.979592
0.102041 0.285714 0.959184
0.0816327 0.285714 0.938776
0.0612245 0.285714 0.918367
0.0408163 0.285714 0.897959
0.0204082 0.285714 0.877551
0 0.285714 0.857143
0 0.285714 1
0 0.285714 1
0 0.285714 1
0 0.285714 1
0 0.285714 1
0 0.285714 1
0 0.285714 1
0 0.285714 1
1 0.428571 1
0.857143 0.428571 0.857143
0.714286 0.428571 0.714286
0.571429 0.428571 0.571429
0.428571 0.428571 0.428571
0.285714 0.428571 0.285714
0.142857 0.428571 0.142857
0 0.428571 0
0.857143 0.428571 1
0.734694 0.428571 0.877551
0.612245 0.428571 0.755102
0.489796 0.428571 0.632653
0.367347 0.428571 0.510204
0.244898 0.428571 0.387755
0.122449 0.428571 0.265306
0 0.428571 0.142857
0.714286 0.428571 1
0.612245 0.428571 0.897959
0.510204 0.428571 0.795918
0.408163 0.428571 0.693878
0.306122 0.428571 0.591837
0.204082 0.428571 0.489796
0.102041 0.428571 0.387755
0 0.428571 0.285714
0.571429 0.428571 1
0.489796 0.428571 0.918367
0.408163 0.428571 0.836735
0.326531 0.428571 0.755102
0.244898 0.428571 0.673469
0.163265 0.428571 0.591837
0.0816327 0.428571 0.510204
0 0.428571 0.428571
0.428571 0.428571 1
0.367347 0.428571 0.938776
0.306122 0.428571 0.877551
0.244898 0.428571 0.816327
0.183673 0.428571 0.755102
0.122449 0.428571 0.693878
0.0612245 0.428571 0.632653
0 0.428571 0.571429
0.285714 0.428571 1
0.244898 0.428571 0.959184
0.204082 0.428571 0.918367
0.163265 0.428571 0.877551
0.122449 0.428571 0.836735
0.0816327 0.428571 0.795918
0.0408163 0.428571 0.755102
0 0.428571 0.714286
0.142857 0.428571 1
0.122449 0.428571 0.979592
0.102041 0.428571 0.959184
0.0816327 0.428571 0.938776
0.0612245 0.428571 0.918367
0.0408163 0.428571 0.897959
0.0204082 0.428571 0.877551
0 0.428571 0.857143
0 0.428571 1
0 0.428571 1
0 0.428571 1
0 0.428571 1
0 0.428571 1
0 0.428571 1
0 0.428571 1
0 0.428571 1
1 0.571429 1
0.857143 0.571429 0.857143
0.714286 0.571429 0.714286
0.571429 0.571429 0.571429
0.428571 0.571429 0.428571
0.285714 0.571429 0.285714
0.142857 0.571429 0.142857
0 0.571429 0
0.857143 0.571429 1
0.734694 0.571429 0.877551
0.612245 0.571429 0.755102
0.489796 0.571429 0.632653
0.367347 0.571429 0.510204
0.244898 0.571429 0.387755
0.122449 0.571429 0.265306
0 0.571429 0.142857
0.714286 0.571429 1
0.612245 0.571429 0.897959
0.510204 0.571429 0.795918
0.408163 0.571429 0.693878
0.306122 0.571429 0.591837
0.204082 0.571429 0.489796
0.102041 0.571429 0.387755
0 0.571429 0.285714
0.571429 0.571429 1
0.489796 0.571429 0.918367
0.408163 0.571429 0.836735
0.326531 0.571429 0.755102
0.244898 0.571429 0.673469
0.163265 0.571429 0.591837
0.0816327 0.571429 0.510204
0 0.571429 0.428571
0.428571 0.571429 1
0.367347 0.571429 0.938776
0.306122 0.571429 0.877551
0.244898 0.571429 0.816327
0.183673 0.571429 0.755102
0.122449 0.571429 0.693878
0.0612245 0.571429 0.632653
0 0.571429 0.571429
0.285714 0.571429 1
0.244898 0.571429 0.959184
0.204082 0.571429 0.918367
0.163265 0.571429 0.877551
0.122449 0.571429 0.836735
0.0816327 0.571429 0.795918
0.0408163 0.571429 0.755102
0 0.571429 0.714286
0.142857 0.571429 1
0.122449 0.571429 0.979592
0.102041 0.571429 0.959184
0.0816327 0.571429 0.938776
0.0612245 0.571429 0.918367
0.0408163 0.571429 0.897959
0.0204082 0.571429 0.877551
0 0.571429 0.857143
0 0.571429 1
0 0.571429 1
0 0.571429 1
0 0.571429 1
0 0.571429 1
0 0.571429 1
0 0.571429 1
0 0.571429 1
1 0.714286 1
0.857143 0.714286 0.857143
0.714286 0.714286 0.714286
0.571429 0.714286 0.571429
0.428571 0.714286 0.428571
0.285714 0.714286 0.285714
0.142857 0.714286 0.142857
0 0.714286 0
0.857143 0.714286 1
0.734694 0.714286 0.877551
0.612245 0.714286 0.755102
0.489796 0.714286 0.632653
0.367347 0.714286 0.510204
0.244898 0.714286 0.387755
0.122449 0.714286 0.265306
0 0.714286 0.142857
0.714286 0.714286 1
0.612245 0.714286 0.897959
0.510204 0.714286 0.795918
0.408163 0.714286 0.693878
0.306122 0.714286 0.591837
0.204082 0.714286 0.489796
0.102041 0.714286 0.387755
0 0.714286 0.285714
0.571429 0.714286 1
0.489796 0.714286 0.918367
0.408163 0.714286 0.836735
0.326531 0.714286 0.755102
0.244898 0.714286 0.673469
0.163265 0.714286 0.591837
0.0816327 0.714286 0.510204
0 0.714286 0.428571
0.428571 0.714286 1
0.367347 0.714286 0.938776
0.306122 0.714286 0.877551
0.244898 0.714286 0.816327
0.183673 0.714286 0.755102
0.122449 0.714286 0.693878
0.0612245 0.714286 0.632653
0 0.714286 0.571429
0.285714 0.714286 1
0.244898 0.714286 0.959184
0.204082 0.714286 0.918367
0.163265 0.714286 0.877551
0.122449 0.714286 0.836735
0.0816327 0.714286 0.795918
0.0408163 0.714286 0.755102
0 0.714286 0.714286
0.142857 0.714286 1
0.122449 0.714286 0.979592
0.102041 0.714286 0.959184
0.0816327 0.714286 0.938776
0.0612245 0.714286 0.918367
0.0408163 0.714286 0.897959
0.0204082 0.714286 0.877551
0 0.714286 0.857143
0 0.714286 1
0 0.714286 1
0 0.714286 1
0 0.714286 1
0 0.714286 1
0 0.714286 1
0 0.714286 1
0 0.714286 1
1 0.857143 1
0.857143 0.857143 0.857143
0.714286 0.857143 0.714286
0.571429 0.857143 0.571429
0.428571 0.857143 0.428571
0.285714 0.857143 0.285714
0.142857 0.857143 0.142857
0 0.857143 0
0.857143 0.857143 1
0.734694 0.857143 0.877551
0.612245 0.857143 0.755102
0.489796 0.857143 0.632653
0.367347 0.857143 0.510204
0.244898 0.857143 0.387755
0.122449 0.857143 0.265306
0 0.857143 0.142857
0.714286 0.857143 1
0.612245 0.857143 0.897959
0.510204 0.857143 0.795918
0.408163 0.857143 0.693878
0.306122 0.857143 0.591837
0.204082 0.857143 0.489796
0.102041 0.857143 0.387755
0 0.857143 0.285714
0.571429 0.857143 1
0.489796 0.857143 0.918367
0.408163 0.857143 0.836735
0.326531 0.857143 0.755102
0.244898 0.857143 0.673469
0.163265 0.857143 0.591837
0.0816327 0.857143 0.510204
0 0.857143 0.428571
0.428571 0.857143 1
0.367347 0.857143 0.938776
0.306122 0.857143 0.877551
0.244898 0.857143 0.816327
0.183673 0.857143 0.755102
0.122449 0.857143 0.693878
0.0612245 0.857143 0.632653
0 0.857143 0.571429
0.285714 0.857143 1
0.244898 0.857143 0.959184
0.204082 0.857143 0.918367
0.163265 0.857143 0.877551
0.122449 0.857143 0.836735
0.0816327 0.857143 0.795918
0.0408163 0.857143 0.755102
0 0.857143 0.714286
0.142857 0.857143 1
0.122449 0.857143 0.979592
0.102041 0.857143 0.959184
[...]
POINT_DATA 1024
SCALARS SolU double 1
LOOKUP_TABLE default
0
8.89208e-19
1.48201e-18
1.77842e-18
1.77842e-18
1.48201e-18
8.89208e-19
0
-4.1702e-35
1.57694e-19
2.62823e-19
3.15388e-19
3.15388e-19
2.62823e-19
1.57694e-19
-4.1702e-35
0
-2.34658e-19
-3.91097e-19
-4.69316e-19
-4.69316e-19
-3.91097e-19
-2.34658e-19
1.48932e-34
-1.46947e-34
-3.70449e-19
-6.17414e-19
-7.40897e-19
-7.40897e-19
-6.17414e-19
-3.70449e-19
-1.46947e-34
0
-3.32278e-19
-5.53796e-19
-6.64555e-19
-6.64555e-19
-5.53796e-19
-3.32278e-19
0
0
-2.02746e-19
-3.3791e-19
-4.05492e-19
-4.05492e-19
-3.3791e-19
-2.02746e-19
0
0
-6.44532e-20
-1.07422e-19
-1.28906e-19
-1.28906e-19
-1.07422e-19
-6.44532e-20
-2.04535e-34
0
0
0
0
0
0
0
0
0
0.547052
0.70246
0.155053
0.155053
0.70246
0.547052
0
-5.09678e-17
0.576389
0.48528
-0.0274787
-0.0274787
0.48528
0.576389
-5.09678e-17
0
0.315907
0.035992
-0.393851
-0.393851
0.035992
0.315907
-2.5422e-16
6.45601e-17
-0.0224826
-0.371997
-0.693447
-0.693447
-0.371997
-0.0224826
6.45601e-17
0
-0.216567
-0.514684
-0.719698
-0.719698
-0.514684
-0.216567
0
0
-0.196639
-0.368117
-0.466974
-0.466974
-0.368117
-0.196639
0
0
-0.0667594
-0.114416
-0.139207
-0.139207
-0.114416
-0.0667594
-2.02997e-16
0
0
0
0
0
0
0
0
0
0.677357
0.821527
0.239067
0.239067
0.821527
0.677357
0
-1.18726e-16
0.708747
0.568249
-0.0104946
-0.0104946
0.568249
0.708747
-1.18726e-16
0
0.372394
0.0229311
-0.473848
-0.473848
0.0229311
0.372394
-3.51308e-16
7.83369e-17
-0.0423253
-0.465705
-0.842279
-0.842279
-0.465705
-0.0423253
7.83369e-17
0
-0.2748
-0.636217
-0.880224
-0.880224
-0.636217
-0.2748
0
0
-0.248955
-0.461191
-0.582191
-0.582191
-0.461191
-0.248955
0
0
-0.0874737
-0.149373
-0.181415
-0.181415
-0.149373
-0.0874737
-2.67495e-16
0
0
0
0
0
0
0
0
0
0.299407
0.356429
0.117236
0.117236
0.356429
0.299407
0
-6.1155e-17
0.310397
0.244603
5.13223e-05
5.13223e-05
0.244603
0.310397
-6.1155e-17
0
0.159621
0.00550326
-0.206807
-0.206807
0.00550326
0.159621
-1.59538e-16
3.3693e-17
-0.0218998
-0.206692
-0.36868
-0.36868
-0.206692
-0.0218998
3.3693e-17
0
-0.122465
-0.28029
-0.385991
-0.385991
-0.28029
-0.122465
0
0
-0.110593
-0.204004
-0.257016
-0.257016
-0.204004
-0.110593
0
0
-0.0393065
-0.0670308
-0.081356
-0.081356
-0.0670308
-0.0393065
-1.20451e-16
0
0
0
0
0
0
0
0
0
-0.299407
-0.356429
-0.117236
-0.117236
-0.356429
-0.299407
0
6.1155e-17
-0.310397
-0.244603
-5.13223e-05
-5.13223e-05
-0.244603
-0.310397
6.1155e-17
0
-0.159621
-0.00550326
0.206807
0.206807
-0.00550326
-0.159621
1.59538e-16
-3.3693e-17
0.0218998
0.206692
0.36868
0.36868
0.206692
0.0218998
-3.3693e-17
0
0.122465
0.28029
0.385991
0.385991
0.28029
0.122465
0
0
0.110593
0.204004
0.257016
0.257016
0.204004
0.110593
0
0
0.0393065
0.0670308
0.081356
0.081356
0.0670308
0.0393065
1.20451e-16
0
0
0
0
0
0
0
0
0
-0.677357
-0.821527
-0.239067
-0.239067
-0.821527
-0.677357
0
1.18726e-16
-0.708747
-0.568249
0.0104946
0.0104946
-0.568249
-0.708747
1.18726e-16
0
-0.372394
-0.0229311
0.473848
0.473848
-0.0229311
-0.372394
3.51308e-16
-7.83369e-17
0.0423253
0.465705
0.842279
0.842279
0.465705
0.0423253
-7.83369e-17
0
0.2748
0.636217
0.880224
0.880224
0.636217
0.2748
0
0
0.248955
0.461191
0.582191
0.582191
0.461191
0.248955
0
0
0.0874737
0.149373
0.181415
0.181415
0.149373
0.0874737
2.67495e-16
0
0
0
0
0
0
0
0
0
-0.547052
-0.70246
-0.155053
-0.155053
-0.70246
-0.547052
0
5.09678e-17
-0.576389
-0.48528
0.0274787
0.0274787
-0.48528
-0.576389
5.09678e-17
0
-0.315907
-0.035992
0.393851
0.393851
-0.035992
-0.315907
2.5422e-16
-6.45601e-17
0.0224826
0.371997
0.693447
0.693447
0.371997
0.0224826
-6.45601e-17
0
0.216567
0.514684
0.719698
0.719698
0.514684
0.216567
0
0
0.196639
0.368117
0.466974
0.466974
0.368117
0.196639
0
0
0.0667594
0.114416
0.139207
0.139207
0.114416
0.0667594
2.02997e-16
0
0
0
0
0
0
0
0
0
-8.89208e-19
-1.48201e-18
-1.77842e-18
-1.77842e-18
-1.48201e-18
-8.89208e-19
0
4.1702e-35
-1.57694e-19
-2.62823e-19
-3.15388e-19
-3.15388e-19
-2.62823e-19
-1.57694e-19
4.1702e-35
0
2.34658e-19
3.91097e-19
4.69316e-19
4.69316e-19
3.91097e-19
2.34658e-19
-1.48932e-34
1.46947e-34
3.70449e-19
6.17414e-19
7.40897e-19
7.40897e-19
6.17414e-19
3.70449e-19
1.46947e-34
0
3.32278e-19
5.53796e-19
6.64555e-19
6.64555e-19
5.53796e-19
3.32278e-19
0
0
2.02746e-19
3.3791e-19
4.05492e-19
4.05492e-19
3.3791e-19
2.02746e-19
0
0
6.44532e-20
1.07422e-19
1.28906e-19
1.28906e-19
1.07422e-19
6.44532e-20
2.04535e-34
0
0
0
0
0
0
0
0
0
8.89208e-19
1.48201e-18
1.77842e-18
1.77842e-18
1.48201e-18
8.89208e-19
0
-4.1702e-35
1.57694e-19
2.62823e-19
3.15388e-19
3.15388e-19
2.62823e-19
1.57694e-19
-4.1702e-35
0
-2.34658e-19
-3.91097e-19
-4.69316e-19
-4.69316e-19
-3.91097e-19
-2.34658e-19
1.48932e-34
-1.46947e-34
-3.70449e-19
-6.17414e-19
-7.40897e-19
-7.40897e-19
-6.17414e-19
-3.70449e-19
-1.46947e-34
0
-3.32278e-19
-5.53796e-19
-6.64555e-19
-6.64555e-19
-5.53796e-19
-3.32278e-19
0
0
-2.02746e-19
-3.3791e-19
-4.05492e-19
-4.05492e-19
-3.3791e-19
-2.02746e-19
0
0
-6.44532e-20
-1.07422e-19
-1.28906e-19
-1.28906e-19
-1.07422e-19
-6.44532e-20
-2.04535e-34
0
0
0
0
0
0
0
0
0
0.547052
0.70246
0.155053
0.155053
0.70246
0.547052
0
-5.09678e-17
0.576389
0.48528
-0.0274787
-0.0274787
0.48528
0.576389
-5.09678e-17
0
0.315907
0.035992
-0.393851
-0.393851
0.035992
0.315907
-2.5422e-16
6.45601e-17
-0.0224826
-0.371997
-0.693447
-0.693447
-0.371997
-0.0224826
6.45601e-17
0
-0.216567
-0.514684
-0.719698
-0.719698
-0.514684
-0.216567
0
0
-0.196639
-0.368117
-0.466974
-0.466974
-0.368117
-0.196639
0
0
-0.0667594
-0.114416
-0.139207
-0.139207
-0.114416
-0.0667594
-2.02997e-16
0
0
0
0
0
0
0
0
0
0.677357
0.821527
0.239067
0.239067
0.821527
0.677357
0
-1.18726e-16
0.708747
0.568249
-0.0104946
-0.0104946
0.568249
0.708747
-1.18726e-16
0
0.372394
0.0229311
-0.473848
-0.473848
0.0229311
0.372394
-3.51308e-16
7.83369e-17
-0.0423253
-0.465705
-0.842279
-0.842279
-0.465705
-0.0423253
7.83369e-17
0
-0.2748
-0.636217
-0.880224
-0.880224
-0.636217
-0.2748
0
0
-0.248955
-0.461191
-0.582191
-0.582191
-0.461191
-0.248955
0
0
-0.0874737
-0.149373
-0.181415
-0.181415
-0.149373
-0.0874737
-2.67495e-16
0
0
0
0
0
0
0
0
0
0.299407
0.356429
0.117236
0.117236
0.356429
0.299407
0
-6.1155e-17
0.310397
0.244603
5.13223e-05
5.13223e-05
0.244603
0.310397
-6.1155e-17
0
0.159621
0.00550326
-0.206807
-0.206807
0.00550326
0.159621
-1.59538e-16
3.3693e-17
-0.0218998
-0.206692
-0.36868
-0.36868
-0.206692
-0.0218998
3.3693e-17
0
-0.122465
-0.28029
-0.385991
-0.385991
-0.28029
-0.122465
0
0
-0.110593
-0.204004
-0.257016
-0.257016
-0.204004
-0.110593
0
0
-0.0393065
-0.0670308
-0.081356
-0.081356
-0.0670308
-0.0393065
-1.20451e-16
0
0
0
0
0
0
0
0
0
-0.299407
-0.356429
-0.117236
-0.117236
-0.356429
-0.299407
0
6.1155e-17
-0.310397
-0.244603
-5.13223e-05
-5.13223e-05
-0.244603
-0.310397
6.1155e-17
0
-0.159621
-0.00550326
0.206807
0.206807
-0.00550326
-0.159621
1.59538e-16
-3.3693e-17
0.0218998
0.206692
0.36868
0.36868
0.206692
0.0218998
-3.3693e-17
0
0.122465
0.28029
0.385991
0.385991
0.28029
0.122465
0
0
0.110593
0.204004
0.257016
0.257016
0.204004
0.110593
0
0
0.0393065
0.0670308
0.081356
0.081356
0.0670308
0.0393065
1.20451e-16
0
0
0
0
0
0
0
0
0
-0.677357
-0.821527
-0.239067
-0.239067
-0.821527
-0.677357
0
1.18726e-16
-0.708747
-0.568249
0.0104946
0.0104946
-0.568249
-0.708747
1.18726e-16
0
-0.372394
-0.0229311
0.473848
0.473848
-0.0229311
-0.372394
3.51308e-16
-7.83369e-17
0.0423253
0.465705
0.842279
0.842279
0.465705
0.0423253
-7.83369e-17
0
0.2748
0.636217
0.880224
0.880224
0.636217
0.2748
0
0
0.248955
0.461191
0.582191
0.582191
0.461191
0.248955
0
0
0.0874737
0.149373
0.181415
0.181415
0.149373
0.0874737
2.67495e-16
0
0
0
0
0
0
0
0
0
-0.547052
-0.70246
-0.155053
-0.155053
-0.70246
-0.547052
0
5.09678e-17
-0.576389
-0.48528
0.0274787
0.0274787
-0.48528
-0.576389
5.09678e-17
0
-0.315907
-0.035992
0.393851
0.393851
-0.035992
-0.315907
2.5422e-16
-6.45601e-17
0.0224826
0.371997
0.693447
0.693447
0.371997
0.0224826
-6.45601e-17
0
0.216567
0.514684
0.719698
0.719698
0.514684
0.216567
0
0
0.196639
0.368117
0.466974
0.466974
0.368117
0.196639
0
0
0.0667594
0.114416
0.139207
0.139207
0.114416
0.0667594
2.02997e-16
0
0
0
0
0
0
0
0
0
-8.89208e-19
-1.48201e-18
-1.77842e-18
-1.77842e-18
-1.48201e-18
-8.89208e-19
0
4.1702e-35
-1.57694e-19
-2.62823e-19
-3.15388e-19
-3.15388e-19
-2.62823e-19
-1.57694e-19
4.1702e-35
0
2.34658e-19
3.91097e-19
4.69316e-19
4.69316e-19
3.91097e-19
2.34658e-19
-1.48932e-34
1.46947e-34
3.70449e-19
6.17414e-19
7.40897e-19
7.40897e-19
6.17414e-19
3.70449e-19
1.46947e-34
0
3.32278e-19
5.53796e-19
6.64555e-19
6.64555e-19
5.53796e-19
3.32278e-19
0
0
2.02746e-19
3.3791e-19
4.05492e-19
4.05492e-19
3.3791e-19
2.02746e-19
0
0
6.44532e-20
1.07422e-19
1.28906e-19
1.28906e-19
1.07422e-19
6.44532e-20
2.04535e-34
0
0
0
0
0
0
0
0

