# vtk DataFile Version 3.0
AMR mesh
ASCII
DATASET UNSTRUCTURED_GRID
POINTS 686 double
1 0 1
0.833333 0 0.833333
0.666667 0 0.666667
0.5 0 0.5
0.333333 0 0.333333
0.166667 0 0.166667
0 0 0
0.833333 0 1
0.694444 0 0.861111
0.555556 0 0.722222
0.416667 0 0.583333
0.277778 0 0.444444
0.138889 0 0.305556
0 0 0.166667
0.666667 0 1
0.555556 0 0.888889
0.444444 0 0.777778
0.333333 0 0.666667
0.222222 0 0.555556
0.111111 0 0.444444
0 0 0.333333
0.5 0 1
0.416667 0 0.916667
0.333333 0 0.833333
0.25 0 0.75
0.166667 0 0.666667
0.0833333 0 0.583333
0 0 0.5
0.333333 0 1
0.277778 0 0.944444
0.222222 0 0.888889
0.166667 0 0.833333
0.111111 0 0.777778
0.0555556 0 0.722222
0 0 0.666667
0.166667 0 1
0.138889 0 0.972222
0.111111 0 0.944444
0.0833333 0 0.916667
0.0555556 0 0.888889
0.0277778 0 0.861111
0 0 0.833333
0 0 1
0 0 1
0 0 1
0 0 1
0 0 1
0 0 1
0 0 1
1 0.166667 1
0.833333 0.166667 0.833333
0.666667 0.166667 0.666667
0.5 0.166667 0.5
0.333333 0.166667 0.333333
0.166667 0.166667 0.166667
0 0.166667 0
0.833333 0.166667 1
0.694444 0.166667 0.861111
0.555556 0.166667 0.722222
0.416667 0.166667 0.583333
0.277778 0.166667 0.444444
0.138889 0.166667 0.305556
0 0.166667 0.166667
0.666667 0.166667 1
0.555556 0.166667 0.888889
0.444444 0.166667 0.777778
0.333333 0.166667 0.666667
0.222222 0.166667 0.555556
0.111111 0.166667 0.444444
0 0.166667 0.333333
0.5 0.166667 1
0.416667 0.166667 0.916667
0.333333 0.166667 0.833333
0.25 0.166667 0.75
0.166667 0.166667 0.666667
0.0833333 0.166667 0.583333
0 0.166667 0.5
0.333333 0.166667 1
0.277778 0.166667 0.944444
0.222222 0.166667 0.888889
0.166667 0.166667 0.833333
0.111111 0.166667 0.777778
0.0555556 0.166667 0.722222
0 0.166667 0.666667
0.166667 0.166667 1
0.138889 0.166667 0.972222
0.111111 0.166667 0.944444
0.0833333 0.166667 0.916667
0.0555556 0.166667 0.888889
0.0277778 0.166667 0.861111
0 0.166667 0.833333
0 0.166667 1
0 0.166667 1
0 0.166667 1
0 0.166667 1
0 0.166667 1
0 0.166667 1
0 0.166667 1
1 0.333333 1
0.833333 0.333333 0.833333
0.666667 0.333333 0.666667
0.5 0.333333 0.5
0.333333 0.333333 0.333333
0.166667 0.333333 0.166667
0 0.333333 0
0.833333 0.333333 1
0.694444 0.333333 0.861111
0.555556 0.333333 0.722222
0.416667 0.333333 0.583333
0.277778 0.333333 0.444444
0.138889 0.333333 0.305556
0 0.333333 0.166667
0.666667 0.333333 1
0.555556 0.333333 0.888889
0.444444 0.333333 0.777778
0.333333 0.333333 0.666667
0.222222 0.333333 0.555556
0.111111 0.333333 0.444444
0 0.333333 0.333333
0.5 0.333333 1
0.416667 0.333333 0.916667
0.333333 0.333333 0.833333
0.25 0.333333 0.75
0.166667 0.333333 0.666667
0.0833333 0.333333 0.583333
0 0.333333 0.5
0.333333 0.333333 1
0.277778 0.333333 0.944444
0.222222 0.333333 0.888889
0.166667 0.333333 0.833333
0.111111 0.333333 0.777778
0.0555556 0.333333 0.722222
0 0.333333 0.666667
0.166667 0.333333 1
0.138889 0.333333 0.972222
0.111111 0.333333 0.944444
0.0833333 0.333333 0.916667
0.0555556 0.333333 0.888889
0.0277778 0.333333 0.861111
0 0.333333 0.833333
0 0.333333 1
0 0.333333 1
0 0.333333 1
0 0.333333 1
0 0.333333 1
0 0.333333 1
0 0.333333 1
1 0.5 1
0.833333 0.5 0.833333
0.666667 0.5 0.666667
0.5 0.5 0.5
0.333333 0.5 0.333333
0.166667 0.5 0.166667
0 0.5 0
0.833333 0.5 1
0.694444 0.5 0.861111
0.555556 0.5 0.722222
0.416667 0.5 0.583333
0.277778 0.5 0.444444
0.138889 0.5 0.305556
0 0.5 0.166667
0.666667 0.5 1
0.555556 0.5 0.888889
0.444444 0.5 0.777778
0.333333 0.5 0.666667
0.222222 0.5 0.555556
0.111111 0.5 0.444444
0 0.5 0.333333
0.5 0.5 1
0.416667 0.5 0.916667
0.333333 0.5 0.833333
0.25 0.5 0.75
0.166667 0.5 0.666667
0.0833333 0.5 0.583333
0 0.5 0.5
0.333333 0.5 1
0.277778 0.5 0.944444
0.222222 0.5 0.888889
0.166667 0.5 0.833333
0.111111 0.5 0.777778
0.0555556 0.5 0.722222
0 0.5 0.666667
0.166667 0.5 1
0.138889 0.5 0.972222
0.111111 0.5 0.944444
0.0833333 0.5 0.916667
0.0555556 0.5 0.888889
0.0277778 0.5 0.861111
0 0.5 0.833333
0 0.5 1
0 0.5 1
0 0.5 1
0 0.5 1
0 0.5 1
0 0.5 1
0 0.5 1
1 0.666667 1
0.833333 0.666667 0.833333
0.666667 0.666667 0.666667
0.5 0.666667 0.5
0.333333 0.666667 0.333333
0.166667 0.666667 0.166667
0 0.666667 0
0.833333 0.666667 1
0.694444 0.666667 0.861111
0.555556 0.666667 0.722222
0.416667 0.666667 0.583333
0.277778 0.666667 0.444444
0.138889 0.666667 0.305556
0 0.666667 0.166667
0.666667 0.666667 1
0.555556 0.666667 0.888889
0.444444 0.666667 0.777778
0.333333 0.666667 0.666667
0.222222 0.666667 0.555556
0.111111 0.666667 0.444444
0 0.666667 0.333333
0.5 0.666667 1
0.416667 0.666667 0.916667
0.333333 0.666667 0.833333
0.25 0.666667 0.75
0.166667 0.666667 0.666667
0.0833333 0.666667 0.583333
0 0.666667 0.5
0.333333 0.666667 1
0.277778 0.666667 0.944444
0.222222 0.666667 0.888889
0.166667 0.666667 0.833333
0.111111 0.666667 0.777778
0.0555556 0.666667 0.722222
0 0.666667 0.666667
0.166667 0.666667 1
0.138889 0.666667 0.972222
0.111111 0.666667 0.944444
0.0833333 0.666667 0.916667
0.0555556 0.666667 0.888889
0.0277778 0.666667 0.861111
0 0.666667 0.833333
0 0.666667 1
0 0.666667 1
0 0.666667 1
0 0.666667 1
0 0.666667 1
0 0.666667 1
0 0.666667 1
1 0.833333 1
0.833333 0.833333 0.833333
0.666667 0.833333 0.666667
0.5 0.833333 0.5
0.333333 0.833333 0.333333
0.166667 0.833333 0.166667
0 0.833333 0
0.833333 0.833333 1
0.694444 0.833333 0.861111
0.555556 0.833333 0.722222
0.416667 0.833333 0.583333
0.277778 0.833333 0.444444
0.138889 0.833333 0.305556
0 0.833333 0.166667
0.666667 0.833333 1
0.555556 0.833333 0.888889
0.444444 0.833333 0.777778
0.333333 0.833333 0.666667
0.222222 0.833333 0.555556
0.111111 0.833333 0.444444
0 0.833333 0.333333
0.5 0.833333 1
0.416667 0.833333 0.916667
0.333333 0.833333 0.833333
0.25 0.833333 0.75
0.166667 0.833333 0.666667
0.0833333 0.833333 0.583333
0 0.833333 0.5
0.333333 0.833333 1
0.277778 0.833333 0.944444
0.222222 0.833333 0.888889
0.166667 0.833333 0.833333
0.111111 0.833333 0.777778
0.0555556 0.833333 0.722222
0 0.833333 0.666667
0.166667 0.833333 1
0.138889 0.833333 0.972222
0.111111 0.833333 0.944444
0.0833333 0.833333 0.916667
0.0555556 0.833333 0.888889
0.0277778 0.833333 0.861111
0 0.833333 0.833333
0 0.833333 1
0 0.833333 1
0 0.833333 1
0 0.833333 1
0 0.833333 1
0 0.833333 1
0 0.833333 1
1 1 1
0.833333 1 0.833333
0.666667 1 0.666667
0.5 1 0.5
0.333333 1 0.333333
0.166667 1 0.166667
0 1 0
0.833333 1 1
0.694444 1 0.861111
0.555556 1 0.722222
0.416667 1 0.583333
0.277778 1 0.444444
0.138889 1 0.305556
0 1 0.166667
0.666667 1 1
0.555556 1 0.888889
0.444444 1 0.777778
0.333333 1 0.666667
0.222222 1 0.555556
0.111111 1 0.444444
0 1 0.333333
0.5 1 1
0.416667 1 0.916667
0.333333 1 0.833333
0.25 1 0.75
0.166667 1 0.666667
0.0833333 1 0.583333
0 1 0.5
0.333333 1 1
0.277778 1 0.944444
0.222222 1 0.888889
0.166667 1 0.833333
0.111111 1 0.777778
0.0555556 1 0.722222
0 1 0.666667
0.166667 1 1
0.138889 1 0.972222
0.111111 1 0.944444
0.0833333 1 0.916667
0.0555556 1 0.888889
0.0277778 1 0.861111
0 1 0.833333
0 1 1
0 1 1
0 1 1
0 1 1
0 1 1
0 1 1
0 1 1
0 0 0
0.166667 0 0.166667
0.333333 0 0.333333
0.5 0 0.5
0.666667 0 0.666667
0.833333 0 0.833333
1 0 1
0.166667 0 0
0.305556 0 0.138889
0.444444 0 0.277778
0.583333 0 0.416667
0.722222 0 0.555556
0.861111 0 0.694444
1 0 0.833333
0.333333 0 0
0.444444 0 0.111111
0.555556 0 0.222222
0.666667 0 0.333333
0.777778 0 0.444444
0.888889 0 0.555556
1 0 0.666667
0.5 0 0
0.583333 0 0.0833333
0.666667 0 0.166667
0.75 0 0.25
0.833333 0 0.333333
0.916667 0 0.416667
1 0 0.5
0.666667 0 0
0.722222 0 0.0555556
0.777778 0 0.111111
0.833333 0 0.166667
0.888889 0 0.222222
0.944444 0 0.277778
1 0 0.333333
0.833333 0 0
0.861111 0 0.0277778
0.888889 0 0.0555556
0.916667 0 0.0833333
0.944444 0 0.111111
0.972222 0 0.138889
1 0 0.166667
1 0 0
1 0 0
1 0 0
1 0 0
1 0 0
1 0 0
1 0 0
0 0.166667 0
0.166667 0.166667 0.166667
0.333333 0.166667 0.333333
0.5 0.166667 0.5
0.666667 0.166667 0.666667
0.833333 0.166667 0.833333
1 0.166667 1
0.166667 0.166667 0
0.305556 0.166667 0.138889
0.444444 0.166667 0.277778
0.583333 0.166667 0.416667
0.722222 0.166667 0.555556
0.861111 0.166667 0.694444
1 0.166667 0.833333
0.333333 0.166667 0
0.444444 0.166667 0.111111
0.555556 0.166667 0.222222
0.666667 0.166667 0.333333
0.777778 0.166667 0.444444
0.888889 0.166667 0.555556
1 0.166667 0.666667
0.5 0.166667 0
0.583333 0.166667 0.0833333
0.666667 0.166667 0.166667
0.75 0.166667 0.25
0.833333 0.166667 0.333333
0.916667 0.166667 0.416667
1 0.166667 0.5
0.666667 0.166667 0
0.722222 0.166667 0.0555556
0.777778 0.166667 0.111111
0.833333 0.166667 0.166667
0.888889 0.166667 0.222222
0.944444 0.166667 0.277778
1 0.166667 0.333333
0.833333 0.166667 0
0.861111 0.166667 0.0277778
0.888889 0.166667 0.0555556
0.916667 0.166667 0.0833333
0.944444 0.166667 0.111111
0.972222 0.166667 0.138889
1 0.166667 0.166667
1 0.166667 0
1 0.166667 0
1 0.166667 0
1 0.166667 0
1 0.166667 0
1 0.166667 0
1 0.166667 0
0 0.333333 0
0.166667 0.333333 0.166667
0.333333 0.333333 0.333333
0.5 0.333333 0.5
0.666667 0.333333 0.666667
0.833333 0.333333 0.833333
1 0.333333 1
0.166667 0.333333 0
0.305556 0.333333 0.138889
0.444444 0.333333 0.277778
0.583333 0.333333 0.416667
0.722222 0.333333 0.555556
0.861111 0.333333 0.694444
1 0.333333 0.833333
0.333333 0.333333 0
0.444444 0.333333 0.111111
0.555556 0.333333 0.222222
0.666667 0.333333 0.333333
0.777778 0.333333 0.444444
0.888889 0.333333 0.555556
1 0.333333 0.666667
0.5 0.333333 0
0.583333 0.333333 0.0833333
0.666667 0.333333 0.166667
0.75 0.333333 0.25
0.833333 0.333333 0.333333
0.916667 0.333333 0.416667
1 0.333333 0.5
0.666667 0.333333 0
0.722222 0.333333 0.0555556
0.777778 0.333333 0.111111
0.833333 0.333333 0.166667
0.888889 0.333333 0.222222
0.944444 0.333333 0.277778
1 0.333333 0.333333
0.833333 0.333333 0
0.861111 0.333333 0.0277778
0.888889 0.333333 0.0555556
0.916667 0.333333 0.0833333
0.944444 0.333333 0.111111
0.972222 0.333333 0.138889
1 0.333333 0.166667
1 0.333333 0
1 0.333333 0
1 0.333333 0
1 0.333333 0
1 0.333333 0
1 0.333333 0
1 0.333333 0
0 0.5 0
0.166667 0.5 0.166667
0.333333 0.5 0.333333
0.5 0.5 0.5
0.666667 0.5 0.666667
0.833333 0.5 0.833333
1 0.5 1
0.166667 0.5 0
[...]
POINT_DATA 686
SCALARS SolU double 1
LOOKUP_TABLE default
0
1.00859e-18
1.61375e-18
1.81547e-18
1.61375e-18
1.00859e-18
0
0
8.05093e-20
1.28815e-19
1.44917e-19
1.28815e-19
8.05093e-20
-3.86136e-35
1.03481e-34
-3.45211e-19
-5.52338e-19
-6.2138e-19
-5.52338e-19
-3.45211e-19
1.03481e-34
0
-4.17346e-19
-6.67753e-19
-7.51223e-19
-6.67753e-19
-4.17346e-19
0
0
-2.84671e-19
-4.55474e-19
-5.12408e-19
-4.55474e-19
-2.84671e-19
3.41333e-34
0
-9.59639e-20
-1.53542e-19
-1.72735e-19
-1.53542e-19
-9.59639e-20
0
0
0
0
0
0
0
0
0
0.726014
0.580627
0.0600513
0.580627
0.726014
0
0
0.650423
0.265915
-0.183862
0.265915
0.650423
-1.86152e-16
-1.33914e-16
0.191262
-0.301738
-0.635333
-0.301738
0.191262
-1.33914e-16
0
-0.218988
-0.654401
-0.865423
-0.654401
-0.218988
0
0
-0.292102
-0.551832
-0.654095
-0.551832
-0.292102
2.55462e-16
0
-0.113097
-0.187809
-0.213885
-0.187809
-0.113097
0
0
0
0
0
0
0
0
0
0.700295
0.561392
0.121685
0.561392
0.700295
0
0
0.624667
0.249371
-0.154728
0.249371
0.624667
-2.64051e-16
-1.39411e-16
0.168918
-0.304043
-0.611791
-0.304043
0.168918
-1.39411e-16
0
-0.225338
-0.642627
-0.840908
-0.642627
-0.225338
0
0
-0.293201
-0.546546
-0.645185
-0.546546
-0.293201
2.63434e-16
0
-0.116762
-0.193053
-0.219546
-0.193053
-0.116762
0
0
0
0
0
0
0
0
0
6.80615e-17
1.71311e-16
-4.40983e-17
5.42797e-17
1.58878e-16
0
0
2.31527e-16
-9.12326e-17
-1.02184e-16
3.44333e-17
7.51434e-17
-4.83579e-31
-2.64862e-31
-2.56061e-16
-1.33095e-16
2.66063e-16
-1.2845e-16
-2.81319e-16
-4.155e-31
0
-1.10773e-16
-3.04213e-17
3.56351e-17
-1.87221e-16
-3.90761e-17
0
0
1.30469e-16
-1.35968e-16
-3.53792e-16
-2.912e-16
6.94483e-17
-9.14153e-31
0
5.44104e-17
-4.17432e-17
-1.21972e-16
-1.06801e-16
-1.69159e-17
0
0
0
0
0
0
0
0
0
-0.700295
-0.561392
-0.121685
-0.561392
-0.700295
0
0
-0.624667
-0.249371
0.154728
-0.249371
-0.624667
2.64051e-16
1.39411e-16
-0.168918
0.304043
0.611791
0.304043
-0.168918
1.39411e-16
0
0.225338
0.642627
0.840908
0.642627
0.225338
0
0
0.293201
0.546546
0.645185
0.546546
0.293201
-2.63434e-16
0
0.116762
0.193053
0.219546
0.193053
0.116762
0
0
0
0
0
0
0
0
0
-0.726014
-0.580627
-0.0600513
-0.580627
-0.726014
0
0
-0.650423
-0.265915
0.183862
-0.265915
-0.650423
1.86152e-16
1.33914e-16
-0.191262
0.301738
0.635333
0.301738
-0.191262
1.33914e-16
0
0.218988
0.654401
0.865423
0.654401
0.218988
0
0
0.292102
0.551832
0.654095
0.551832
0.292102
-2.55462e-16
0
0.113097
0.187809
0.213885
0.187809
0.113097
0
0
0
0
0
0
0
0
0
-1.00859e-18
-1.61375e-18
-1.81547e-18
-1.61375e-18
-1.00859e-18
0
0
-8.05093e-20
-1.28815e-19
-1.44917e-19
-1.28815e-19
-8.05093e-20
3.86136e-35
-1.03481e-34
3.45211e-19
5.52338e-19
6.2138e-19
5.52338e-19
3.45211e-19
-1.03481e-34
0
4.17346e-19
6.67753e-19
7.51223e-19
6.67753e-19
4.17346e-19
0
0
2.84671e-19
4.55474e-19
5.12408e-19
4.55474e-19
2.84671e-19
-3.41333e-34
0
9.59639e-20
1.53542e-19
1.72735e-19
1.53542e-19
9.59639e-20
0
0
0
0
0
0
0
0
0
1.00859e-18
1.61375e-18
1.81547e-18
1.61375e-18
1.00859e-18
0
0
8.05093e-20
1.28815e-19
1.44917e-19
1.28815e-19
8.05093e-20
-3.86136e-35
1.03481e-34
-3.45211e-19
-5.52338e-19
-6.2138e-19
-5.52338e-19
-3.45211e-19
1.03481e-34
0
-4.17346e-19
-6.67753e-19
-7.51223e-19
-6.67753e-19
-4.17346e-19
0
0
-2.84671e-19
-4.55474e-19
-5.12408e-19
-4.55474e-19
-2.84671e-19
3.41333e-34
0
-9.59639e-20
-1.53542e-19
-1.72735e-19
-1.53542e-19
-9.59639e-20
0
0
0
0
0
0
0
0
0
0.726014
0.580627
0.0600513
0.580627
0.726014
0
0
0.650423
0.265915
-0.183862
0.265915
0.650423
-1.86152e-16
-1.33914e-16
0.191262
-0.301738
-0.635333
-0.301738
0.191262
-1.33914e-16
0
-0.218988
-0.654401
-0.865423
-0.654401
-0.218988
0
0
-0.292102
-0.551832
-0.654095
-0.551832
-0.292102
2.55462e-16
0
-0.113097
-0.187809
-0.213885
-0.187809
-0.113097
0
0
0
0
0
0
0
0
0
0.700295
0.561392
0.121685
0.561392
0.700295
0
0
0.624667
0.249371
-0.154728
0.249371
0.624667
-2.64051e-16
-1.39411e-16
0.168918
-0.304043
-0.611791
-0.304043
0.168918
-1.39411e-16
0
-0.225338
-0.642627
-0.840908
-0.642627
-0.225338
0
0
-0.293201
-0.546546
-0.645185
-0.546546
-0.293201
2.63434e-16
0
-0.116762
-0.193053
-0.219546
-0.193053
-0.116762
0
0
0
0
0
0
0
0
0
1.58878e-16
5.42797e-17
-4.40983e-17
1.71311e-16
6.80615e-17
0
0
1.38818e-16
-2.37897e-17
-1.38486e-16
-3.69493e-17
1.39498e-16
-2.7107e-31
-1.00546e-31
-3.21852e-16
-9.49281e-17
2.41954e-16
-6.82966e-17
-3.14537e-16
-4.51393e-32
0
9.10957e-18
-7.23452e-17
3.11572e-17
-7.95859e-18
-8.17193e-18
0
0
1.41135e-16
-2.49703e-16
-3.71673e-16
-9.47589e-17
2.89865e-16
-1.07555e-30
0
1.03979e-17
-7.09449e-17
-7.15587e-17
3.48951e-17
1.39386e-16
0
0
0
0
0
0
0
0
0
-0.700295
-0.561392
-0.121685
-0.561392
-0.700295
0
0
-0.624667
-0.249371
0.154728
-0.249371
-0.624667
2.64051e-16
1.39411e-16
-0.168918
0.304043
0.611791
0.304043
-0.168918
1.39411e-16
0
0.225338
0.642627
0.840908
0.642627
0.225338
0
0
0.293201
0.546546
0.645185
0.546546
0.293201
-2.63434e-16
0
0.116762
0.193053
0.219546
0.193053
0.116762
0
0
0
0
0
0
0
0
0
-0.726014
-0.580627
-0.0600513
-0.580627
-0.726014
0
0
-0.650423
-0.265915
0.183862
-0.265915
-0.650423
1.86152e-16
1.33914e-16
-0.191262
0.301738
0.635333
0.301738
-0.191262
1.33914e-16
0
0.218988
0.654401
0.865423
0.654401
0.218988
0
0
0.292102
0.551832
0.654095
0.551832
0.292102
-2.55462e-16
0
0.113097
0.187809
0.213885
0.187809
0.113097
0
0
0
0
0
0
0
0
0
-1.00859e-18
-1.61375e-18
-1.81547e-18
-1.61375e-18
-1.00859e-18
0
0
-8.05093e-20
-1.28815e-19
-1.44917e-19
-1.28815e-19
-8.05093e-20
3.86136e-35
-1.03481e-34
3.45211e-19
5.52338e-19
6.2138e-19
5.52338e-19
3.45211e-19
-1.03481e-34
0
4.17346e-19
6.67753e-19
7.51223e-19
6.67753e-19
4.17346e-19
0
0
2.84671e-19
4.55474e-19
5.12408e-19
4.55474e-19
2.84671e-19
-3.41333e-34
0
9.59639e-20
1.53542e-19
1.72735e-19
1.53542e-19
9.59639e-20
0
0
0
0
0
0
0
0

