# vtk DataFile Version 3.0
AMR mesh
ASCII
DATASET UNSTRUCTURED_GRID
POINTS 128 double
1 0 1
0.666667 0 0.666667
0.333333 0 0.333333
0 0 0
0.666667 0 1
0.444444 0 0.777778
0.222222 0 0.555556
0 0 0.333333
0.333333 0 1
0.222222 0 0.888889
0.111111 0 0.777778
0 0 0.666667
0 0 1
0 0 1
0 0 1
0 0 1
1 0.333333 1
0.666667 0.333333 0.666667
0.333333 0.333333 0.333333
0 0.333333 0
0.666667 0.333333 1
0.444444 0.333333 0.777778
0.222222 0.333333 0.555556
0 0.333333 0.333333
0.333333 0.333333 1
0.222222 0.333333 0.888889
0.111111 0.333333 0.777778
0 0.333333 0.666667
0 0.333333 1
0 0.333333 1
0 0.333333 1
0 0.333333 1
1 0.666667 1
0.666667 0.666667 0.666667
0.333333 0.666667 0.333333
0 0.666667 0
0.666667 0.666667 1
0.444444 0.666667 0.777778
0.222222 0.666667 0.555556
0 0.666667 0.333333
0.333333 0.666667 1
0.222222 0.666667 0.888889
0.111111 0.666667 0.777778
0 0.666667 0.666667
0 0.666667 1
0 0.666667 1
0 0.666667 1
0 0.666667 1
1 1 1
0.666667 1 0.666667
0.333333 1 0.333333
0 1 0
0.666667 1 1
0.444444 1 0.777778
0.222222 1 0.555556
0 1 0.333333
0.333333 1 1
0.222222 1 0.888889
0.111111 1 0.777778
0 1 0.666667
0 1 1
0 1 1
0 1 1
0 1 1
0 0 0
0.333333 0 0.333333
0.666667 0 0.666667
1 0 1
0.333333 0 0
0.555556 0 0.222222
0.777778 0 0.444444
1 0 0.666667
0.666667 0 0
0.777778 0 0.111111
0.888889 0 0.222222
1 0 0.333333
1 0 0
1 0 0
1 0 0
1 0 0
0 0.333333 0
0.333333 0.333333 0.333333
0.666667 0.333333 0.666667
1 0.333333 1
0.333333 0.333333 0
0.555556 0.333333 0.222222
0.777778 0.333333 0.444444
1 0.333333 0.666667
0.666667 0.333333 0
0.777778 0.333333 0.111111
0.888889 0.333333 0.222222
1 0.333333 0.333333
1 0.333333 0
1 0.333333 0
1 0.333333 0
1 0.333333 0
0 0.666667 0
0.333333 0.666667 0.333333
0.666667 0.666667 0.666667
1 0.666667 1
0.333333 0.666667 0
0.555556 0.666667 0.222222
0.777778 0.666667 0.444444
1 0.666667 0.666667
0.666667 0.666667 0
0.777778 0.666667 0.111111
0.888889 0.666667 0.222222
1 0.666667 0.333333
1 0.666667 0
1 0.666667 0
1 0.666667 0
1 0.666667 0
0 1 0
0.333333 1 0.333333
0.666667 1 0.666667
1 1 1
0.333333 1 0
0.555556 1 0.222222
0.777778 1 0.444444
1 1 0.666667
0.666667 1 0
0.777778 1 0.111111
0.888889 1 0.222222
1 1 0.333333
1 1 0
1 1 0
1 1 0
1 1 0

CELLS 54 486
8 0 1 5 4 16 17 21 20 
8 1 2 6 5 17 18 22 21 
8 2 3 7 6 18 19 23 22 
8 4 5 9 8 20 21 25 24 
8 5 6 10 9 21 22 26 25 
8 6 7 11 10 22 23 27 26 
8 8 9 13 12 24 25 29 28 
8 9 10 14 13 25 26 30 29 
8 10 11 15 14 26 27 31 30 
8 16 17 21 20 32 33 37 36 
8 17 18 22 21 33 34 38 37 
8 18 19 23 22 34 35 39 38 
8 20 21 25 24 36 37 41 40 
8 21 22 26 25 37 38 42 41 
8 22 23 27 26 38 39 43 42 
8 24 25 29 28 40 41 45 44 
8 25 26 30 29 41 42 46 45 
8 26 27 31 30 42 43 47 46 
8 32 33 37 36 48 49 53 52 
8 33 34 38 37 49 50 54 53 
8 34 35 39 38 50 51 55 54 
8 36 37 41 40 52 53 57 56 
8 37 38 42 41 53 54 58 57 
8 38 39 43 42 54 55 59 58 
8 40 41 45 44 56 57 61 60 
8 41 42 46 45 57 58 62 61 
8 42 43 47 46 58 59 63 62 
8 64 65 69 68 80 81 85 84 
8 65 66 70 69 81 82 86 85 
8 66 67 71 70 82 83 87 86 
8 68 69 73 72 84 85 89 88 
8 69 70 74 73 85 86 90 89 
8 70 71 75 74 86 87 91 90 
8 72 73 77 76 88 89 93 92 
8 73 74 78 77 89 90 94 93 
8 74 75 79 78 90 91 95 94 
8 80 81 85 84 96 97 101 100 
8 81 82 86 85 97 98 102 101 
8 82 83 87 86 98 99 103 102 
8 84 85 89 88 100 101 105 104 
8 85 86 90 89 101 102 106 105 
8 86 87 91 90 102 103 107 106 
8 88 89 93 92 104 105 109 108 
8 89 90 94 93 105 106 110 109 
8 90 91 95 94 106 107 111 110 
8 96 97 101 100 112 113 117 116 
8 97 98 102 101 113 114 118 117 
8 98 99 103 102 114 115 119 118 
8 100 101 105 104 116 117 121 120 
8 101 102 106 105 117 118 122 121 
8 102 103 107 106 118 119 123 122 
8 104 105 109 108 120 121 125 124 
8 105 106 110 109 121 122 126 125 
8 106 107 111 110 122 123 127 126 
CELL_TYPES 54
12
12
12
12
12
12
12
12
12
12
12
12
12
12
12
12
12
12
12
12
12
12
12
12
12
12
12
12
12
12
12
12
12
12
12
12
12
12
12
12
12
12
12
12
12
12
12
12
12
12
12
12
12
12

POINT_DATA 128
SCALARS SolU double 1
LOOKUP_TABLE default
0
1.61375e-18
1.61375e-18
0
1.03481e-34
-5.52338e-19
-5.52338e-19
1.03481e-34
0
-4.55474e-19
-4.55474e-19
3.41333e-34
0
0
0
0
0
0.561392
0.561392
0
-1.39411e-16
-0.304043
-0.304043
-1.39411e-16
0
-0.546546
-0.546546
2.63434e-16
0
0
0
0
0
-0.561392
-0.561392
0
1.39411e-16
0.304043
0.304043
1.39411e-16
0
0.546546
0.546546
-2.63434e-16
0
0
0
0
0
-1.61375e-18
-1.61375e-18
0
-1.03481e-34
5.52338e-19
5.52338e-19
-1.03481e-34
0
4.55474e-19
4.55474e-19
-3.41333e-34
0
0
0
0
0
1.61375e-18
1.61375e-18
0
1.03481e-34
-5.52338e-19
-5.52338e-19
1.03481e-34
0
-4.55474e-19
-4.55474e-19
3.41333e-34
0
0
0
0
0
0.561392
0.561392
0
-1.39411e-16
-0.304043
-0.304043
-1.39411e-16
0
-0.546546
-0.546546
2.63434e-16
0
0
0
0
0
-0.561392
-0.561392
0
1.39411e-16
0.304043
0.304043
1.39411e-16
0
0.546546
0.546546
-2.63434e-16
0
0
0
0
0
-1.61375e-18
-1.61375e-18
0
-1.03481e-34
5.52338e-19
5.52338e-19
-1.03481e-34
0
4.55474e-19
4.55474e-19
-3.41333e-34
0
0
0
0

